ITEM: TIMESTEP
0
ITEM: NUMBER OF ATOMS
189
ITEM: BOX BOUNDS ss ss ss
-2.4710000229999999e+01 1.6099999700000001e+00
-1.1288999749999999e+01 1.3319999890000000e+01
7.7250001900000003e+00 3.1754000850000001e+01
ITEM: ATOMS id type xs ys zs
1 1 0.557827 0.0711528 0.603604
2 3 0.574088 0.161445 0.636689
3 4 0.506231 0.0477874 0.58933
4 1 0.543769 0.21037 0.537476
5 3 0.52405 0.290382 0.587082
6 4 0.534271 0.22061 0.473636
7 1 0.431003 0.251697 0.629156
8 3 0.44905 0.307408 0.708977
9 4 0.381383 0.220935 0.634608
10 1 0.504635 0.228737 0.763286
11 3 0.558777 0.3005 0.793416
12 4 0.513602 0.174814 0.792085
13 1 0.624848 0.293145 0.701486
14 3 0.642097 0.387988 0.705814
15 4 0.657979 0.270755 0.654834
16 1 0.551824 0.41814 0.651546
17 3 0.54772 0.493478 0.715718
18 4 0.510448 0.419196 0.606184
19 1 0.48636 0.437563 0.791627
20 3 0.535904 0.497257 0.850556
21 4 0.449544 0.397578 0.818344
22 1 0.611284 0.41818 0.868908
23 3 0.660866 0.495754 0.894086
24 4 0.643883 0.36702 0.864705
25 1 0.682143 0.524198 0.783262
26 3 0.679027 0.617254 0.805818
27 4 0.69924 0.521638 0.722793
28 1 0.578951 0.631395 0.780848
29 3 0.58503 0.696981 0.853011
30 4 0.528913 0.636271 0.751592
31 1 0.57272 0.622252 0.940072
32 3 0.624088 0.685928 0.991677
33 4 0.550418 0.571539 0.971826
34 1 0.715805 0.637856 0.953514
35 3 0.758435 0.72506 0.957759
36 4 0.753457 0.596855 0.928878
37 1 0.705509 0.765005 0.86329
38 3 0.670327 0.855053 0.872154
39 4 0.700874 0.756187 0.800075
40 1 0.593123 0.819172 0.946606
41 3 0.532295 0.88045 0.910275
42 5 0.633283 0.816019 0.916588
43 1 0.497454 0.809541 0.826876
44 3 0.453723 0.727579 0.852387
45 4 0.519073 0.797716 0.768738
46 1 0.357295 0.772644 0.836989
47 3 0.372416 0.774635 0.739606
48 4 0.318313 0.802349 0.871156
49 1 0.290729 0.710269 0.709975
50 3 0.291147 0.752692 0.621083
51 4 0.247264 0.669308 0.709143
52 1 0.240046 0.846073 0.658121
53 3 0.286322 0.894835 0.588955
54 4 0.202622 0.881954 0.688709
55 1 0.372264 0.908651 0.659828
56 3 0.426824 0.903734 0.58059
57 4 0.404065 0.914706 0.712514
58 1 0.429673 0.788045 0.583753
59 3 0.431345 0.789589 0.484456
60 4 0.436816 0.730424 0.606184
61 1 0.323366 0.794222 0.474427
62 3 0.34829 0.84205 0.392026
63 4 0.266793 0.792596 0.486537
64 1 0.350152 0.944451 0.443922
65 3 0.416451 0.972734 0.381497
66 4 0.34016 0.991873 0.483374
67 1 0.493883 0.917754 0.436722
68 3 0.532295 0.896136 0.347622
69 4 0.528192 0.896989 0.482916
70 1 0.472948 0.801495 0.33418
71 3 0.455053 0.815433 0.237879
72 4 0.458663 0.744524 0.355487
73 1 0.367857 0.878825 0.257605
74 3 0.309195 0.837133 0.1931
75 5 0.401444 0.899641 0.191526
76 1 0.266337 0.769637 0.274668
77 3 0.224924 0.824942 0.343585
78 4 0.28503 0.70909 0.278039
79 1 0.141489 0.751473 0.352865
80 3 0.185714 0.691739 0.414499
81 4 0.0931231 0.726442 0.323609
82 1 0.127698 0.721281 0.507553
83 3 0.143465 0.627738 0.530609
84 4 0.0976824 0.752611 0.550959
85 1 0.0578268 0.590394 0.467019
86 3 0.0987082 0.504856 0.456865
87 4 0.00759878 0.589175 0.434267
88 1 0.169453 0.539681 0.378126
89 3 0.228609 0.477833 0.420201
90 4 0.198632 0.568572 0.33239
91 1 0.255547 0.551871 0.504973
92 3 0.263526 0.473688 0.5654
93 4 0.272074 0.604007 0.537808
94 1 0.159309 0.477183 0.595073
95 3 0.167591 0.380796 0.605435
96 4 0.104255 0.495916 0.601273
97 1 0.148328 0.361534 0.490948
98 3 0.203343 0.283921 0.491323
99 4 0.124696 0.366776 0.432519
100 1 0.292097 0.343695 0.485205
101 3 0.330281 0.282214 0.550668
102 4 0.325228 0.385956 0.457655
103 1 0.300684 0.342233 0.644222
104 3 0.284461 0.271405 0.707895
105 4 0.296581 0.392295 0.681676
106 1 0.192249 0.238531 0.653294
107 3 0.170289 0.150026 0.614674
108 4 0.13712 0.257629 0.651712
109 1 0.257637 0.147141 0.545924
110 3 0.225 0.0923239 0.472929
111 5 0.241451 0.133629 0.484826
112 1 0.157067 0.171563 0.432685
113 3 0.163526 0.160754 0.333847
114 4 0.109878 0.207119 0.439386
115 1 0.251178 0.226137 0.325274
116 3 0.326862 0.235645 0.38208
117 4 0.236626 0.28323 0.301011
118 1 0.38541 0.170263 0.311623
119 3 0.466451 0.199277 0.28141
120 4 0.392515 0.108538 0.309543
121 1 0.429863 0.240237 0.178784
122 3 0.39035 0.29217 0.105914
123 4 0.440236 0.199358 0.131674
124 1 0.380395 0.385387 0.170794
125 3 0.455205 0.391686 0.114487
126 4 0.379863 0.420171 0.223022
127 1 0.41326 0.473038 0.0455283
128 3 0.491831 0.522126 0.0368305
129 4 0.375266 0.502662 0.00832328
130 1 0.480433 0.57032 0.14316
131 3 0.535904 0.574993 0.219235
132 4 0.448024 0.610833 0.17687
133 1 0.585486 0.477102 0.199634
134 3 0.652888 0.515624 0.251488
135 4 0.595707 0.418221 0.181905
136 1 0.69734 0.568816 0.159973
137 3 0.726178 0.636068 0.224853
138 4 0.707447 0.581698 0.0985892
139 1 0.633131 0.69182 0.227267
140 3 0.637158 0.710431 0.325856
141 4 0.583891 0.720549 0.212535
142 1 0.601292 0.607136 0.355945
143 3 0.658625 0.612337 0.43306
144 4 0.566831 0.557682 0.354863
145 1 0.73845 0.562883 0.372841
146 3 0.791831 0.616197 0.432144
147 4 0.770289 0.531066 0.331599
148 1 0.784612 0.709131 0.360606
149 3 0.793997 0.765452 0.440801
150 4 0.780319 0.740298 0.305839
151 1 0.689438 0.767158 0.464897
152 3 0.701862 0.768256 0.564193
153 4 0.632181 0.76789 0.45416
154 1 0.72766 0.655736 0.568729
155 3 0.802736 0.630257 0.620084
156 4 0.703609 0.598846 0.565358
157 1 0.869415 0.674062 0.541554
158 3 0.928191 0.60486 0.569728
159 5 0.813944 0.695732 0.490207
160 1 0.883663 0.526474 0.497649
161 3 0.869339 0.544191 0.399725
162 4 0.849582 0.486164 0.529652
163 1 0.909916 0.44183 0.368513
164 3 0.832257 0.397822 0.395106
165 4 0.952888 0.400382 0.365517
166 1 0.806763 0.371328 0.285239
167 3 0.775874 0.28453 0.316451
168 4 0.795821 0.383843 0.223605
169 1 0.87215 0.234264 0.308044
170 3 0.830661 0.182372 0.380332
171 4 0.928116 0.224146 0.294935
172 1 0.864818 0.250599 0.465438
173 3 0.792097 0.210492 0.505722
174 4 0.890236 0.293226 0.502351
175 1 0.722606 0.285221 0.460652
176 3 0.668199 0.208176 0.478713
177 4 0.699696 0.331667 0.426152
178 1 0.6875 0.163355 0.371801
179 3 0.675646 0.0725751 0.402264
180 4 0.696695 0.168394 0.308253
181 1 0.779559 0.0543703 0.423488
182 3 0.797644 0.00812711 0.508469
183 4 0.822226 0.0406762 0.381456
184 1 0.829369 0.102808 0.564485
185 3 0.905205 0.0754602 0.612635
186 5 0.811398 0.137674 0.560289
187 1 0.966375 0.0841562 0.517
188 3 0.992401 0.100817 0.427192
189 4 0.978951 0.0238937 0.499355
ITEM: TIMESTEP
2000
ITEM: NUMBER OF ATOMS
189
ITEM: BOX BOUNDS ss ss ss
-2.4943158422470315e+01 3.7091740572341396e+00
-1.1446149978208997e+01 1.2398254480453282e+01
8.4261312425682480e+00 3.0367440523930689e+01
ITEM: ATOMS id type xs ys zs
1 1 0.613867 0.0639355 0.544427
2 3 0.616191 0.163587 0.540595
3 4 0.626986 0.0238813 0.495918
4 1 0.582004 0.178645 0.42846
5 3 0.557332 0.267155 0.463667
6 4 0.568563 0.168285 0.364503
7 1 0.473287 0.225221 0.522791
8 3 0.474984 0.279808 0.60562
9 4 0.425402 0.186799 0.521693
10 1 0.520333 0.208735 0.682002
11 3 0.562435 0.283426 0.73069
12 4 0.533343 0.154432 0.706688
13 1 0.632373 0.295564 0.646529
14 3 0.630702 0.39685 0.656233
15 4 0.67018 0.273255 0.615712
16 1 0.560516 0.421393 0.579037
17 3 0.531255 0.483046 0.656773
18 4 0.534332 0.418259 0.525475
19 1 0.474107 0.413787 0.717674
20 3 0.493631 0.454348 0.803042
21 4 0.435956 0.372464 0.729885
22 1 0.576666 0.404213 0.830854
23 3 0.61314 0.490647 0.874566
24 4 0.606981 0.3527 0.837484
25 1 0.638383 0.530332 0.760581
26 3 0.623523 0.624717 0.792811
27 4 0.660469 0.53257 0.69736
28 1 0.535967 0.626699 0.753436
29 3 0.518825 0.684703 0.83958
30 4 0.48695 0.613726 0.721523
31 1 0.506208 0.59837 0.924935
32 3 0.53423 0.651583 1.00432
33 4 0.499854 0.531683 0.943211
34 1 0.627601 0.632524 0.967076
35 3 0.642913 0.730286 0.98813
36 4 0.663257 0.590969 0.967659
37 1 0.628909 0.773032 0.870739
38 3 0.592512 0.859703 0.91935
39 4 0.627383 0.776243 0.805993
40 1 0.516517 0.802803 0.95129
41 3 0.472791 0.86844 0.894694
42 5 0.543697 0.822756 0.948695
43 1 0.431437 0.790196 0.818679
44 3 0.399876 0.699608 0.838369
45 4 0.461025 0.795543 0.75277
46 1 0.31509 0.735443 0.798452
47 3 0.331356 0.734721 0.690442
48 4 0.274548 0.76301 0.819457
49 1 0.264114 0.667558 0.65888
50 3 0.258943 0.709273 0.560408
51 4 0.223107 0.626489 0.661046
52 1 0.211608 0.808159 0.599476
53 3 0.252576 0.86463 0.531154
54 4 0.175269 0.840218 0.636129
55 1 0.32202 0.90075 0.61401
56 3 0.376222 0.9099 0.531173
57 4 0.342954 0.913202 0.675793
58 1 0.396867 0.793032 0.529115
59 3 0.401426 0.794643 0.420266
60 4 0.417736 0.736484 0.550083
61 1 0.302978 0.789055 0.415111
62 3 0.30864 0.846473 0.328683
63 4 0.24469 0.78781 0.419817
64 1 0.311822 0.949117 0.388392
65 3 0.372157 0.993737 0.322774
66 4 0.300122 0.992318 0.434056
67 1 0.442207 0.937782 0.383471
68 3 0.470863 0.923075 0.285519
69 4 0.471378 0.919795 0.432
70 1 0.449004 0.812437 0.276985
71 3 0.442219 0.819517 0.168487
72 4 0.428766 0.754211 0.288356
73 1 0.356638 0.870902 0.168809
74 3 0.289727 0.856532 0.0992491
75 5 0.324249 0.847342 0.167431
76 1 0.272182 0.757036 0.157685
77 3 0.207674 0.807427 0.194282
78 4 0.288476 0.698309 0.189723
79 1 0.15654 0.725838 0.243311
80 3 0.174669 0.657927 0.320667
81 4 0.126884 0.679948 0.204251
82 1 0.114905 0.708739 0.403781
83 3 0.101883 0.620216 0.440824
84 4 0.0790868 0.742069 0.441055
85 1 0.0530018 0.575864 0.345797
86 3 0.0876524 0.484974 0.346283
87 4 0.0133039 0.580164 0.299694
88 1 0.166292 0.52223 0.274732
89 3 0.213137 0.463225 0.333272
90 4 0.183987 0.563322 0.225756
91 1 0.236934 0.533375 0.424009
92 3 0.228785 0.458274 0.497975
93 4 0.250607 0.585392 0.451971
94 1 0.131578 0.47428 0.505597
95 3 0.122225 0.378866 0.533903
96 4 0.0819436 0.499512 0.499807
97 1 0.142685 0.342806 0.412644
98 3 0.189031 0.264578 0.439018
99 4 0.132261 0.348902 0.346999
100 1 0.270216 0.322457 0.457796
101 3 0.279953 0.269916 0.552016
102 4 0.306523 0.368208 0.450105
103 1 0.220717 0.333859 0.622723
104 3 0.190758 0.252256 0.669226
105 4 0.194277 0.379881 0.654389
106 1 0.133517 0.217881 0.578852
107 3 0.139685 0.130001 0.526169
108 4 0.0919477 0.235254 0.546597
109 1 0.236293 0.113944 0.560029
110 3 0.249624 0.0713648 0.457006
111 5 0.242406 0.152652 0.592437
112 1 0.15656 0.0909917 0.412101
113 3 0.174484 0.0984863 0.303308
114 4 0.109968 0.115278 0.414615
115 1 0.253361 0.161842 0.318707
116 3 0.317095 0.2008 0.383214
117 4 0.25077 0.215288 0.287721
118 1 0.382089 0.132174 0.346269
119 3 0.456442 0.172196 0.318849
120 4 0.399738 0.0724261 0.365584
121 1 0.427367 0.199153 0.204903
122 3 0.367555 0.254864 0.149723
123 4 0.433353 0.166211 0.145807
124 1 0.398569 0.356283 0.20535
125 3 0.449236 0.365043 0.112784
126 4 0.421787 0.39886 0.246818
127 1 0.379615 0.424894 0.0504503
128 3 0.450683 0.47009 0.0162427
129 4 0.335929 0.459707 0.03731
130 1 0.463151 0.535041 0.118733
131 3 0.527609 0.556786 0.181793
132 4 0.439595 0.582061 0.157684
133 1 0.556124 0.441929 0.17185
134 3 0.626814 0.479643 0.211762
135 4 0.566754 0.382167 0.143188
136 1 0.643963 0.536589 0.0951311
137 3 0.680818 0.609636 0.152029
138 4 0.646167 0.54009 0.0317912
139 1 0.592953 0.66472 0.173107
140 3 0.620489 0.690788 0.271819
141 4 0.541796 0.684659 0.161199
142 1 0.593212 0.591858 0.32653
143 3 0.660326 0.604449 0.388374
144 4 0.564124 0.536477 0.337568
145 1 0.721487 0.558241 0.307374
146 3 0.776777 0.641543 0.308782
147 4 0.734216 0.517646 0.253233
148 1 0.740589 0.702343 0.218536
149 3 0.767263 0.780645 0.276986
150 4 0.704975 0.717538 0.170887
151 1 0.69704 0.786451 0.354015
152 3 0.739464 0.809973 0.449512
153 4 0.647604 0.799331 0.366608
154 1 0.753098 0.695029 0.462806
155 3 0.826119 0.731231 0.499711
156 4 0.748193 0.630241 0.472961
157 1 0.85882 0.727317 0.382286
158 3 0.929709 0.690079 0.373916
159 5 0.887192 0.746177 0.364363
160 1 0.910413 0.576042 0.370125
161 3 0.889841 0.571951 0.266531
162 4 0.882789 0.532186 0.41987
163 1 0.910551 0.459041 0.255403
164 3 0.867861 0.403865 0.32326
165 4 0.954901 0.438552 0.227594
166 1 0.816663 0.357849 0.222347
167 3 0.812635 0.267179 0.277877
168 4 0.786491 0.348326 0.164393
169 1 0.897553 0.232232 0.238371
170 3 0.892695 0.188928 0.337361
171 4 0.943048 0.221957 0.21159
172 1 0.916193 0.289409 0.401634
173 3 0.867629 0.263897 0.484194
174 4 0.936759 0.34906 0.422067
175 1 0.779783 0.303089 0.436129
176 3 0.735704 0.226037 0.479167
177 4 0.749647 0.339078 0.405605
178 1 0.764896 0.152217 0.383442
179 3 0.799273 0.0652553 0.417028
180 4 0.758019 0.139044 0.312948
181 1 0.870593 0.111991 0.483441
182 3 0.86566 0.101607 0.587036
183 4 0.920448 0.128773 0.472079
184 1 0.816079 0.196168 0.620774
185 3 0.880005 0.246752 0.656301
186 5 0.830669 0.2271 0.661206
187 1 0.926345 0.167453 0.721303
188 3 0.98718 0.094231 0.747875
189 4 0.964278 0.171613 0.664129
ITEM: TIMESTEP
4000
ITEM: NUMBER OF ATOMS
189
ITEM: BOX BOUNDS ss ss ss
-2.5314534787248764e+01 2.1728544527499860e+00
-1.4040478538551614e+01 1.0623202373218373e+01
7.8494123739598587e+00 3.2399959385358457e+01
ITEM: ATOMS id type xs ys zs
1 1 0.571696 0.127427 0.631782
2 3 0.57727 0.220736 0.647203
3 4 0.575357 0.087325 0.584602
4 1 0.523342 0.247865 0.560805
5 3 0.502029 0.330997 0.606188
6 4 0.491926 0.252757 0.506736
7 1 0.432003 0.290635 0.66926
8 3 0.456214 0.34907 0.736391
9 4 0.388709 0.257112 0.69332
10 1 0.518439 0.280196 0.795892
11 3 0.571579 0.35443 0.821147
12 4 0.534854 0.22696 0.813195
13 1 0.62469 0.353747 0.726254
14 3 0.615555 0.449947 0.71796
15 4 0.653657 0.33428 0.675627
16 1 0.52642 0.447878 0.668537
17 3 0.506011 0.523667 0.725759
18 4 0.491566 0.438122 0.626241
19 1 0.4777 0.475748 0.814939
20 3 0.5167 0.53899 0.87622
21 4 0.447562 0.435596 0.839268
22 1 0.601836 0.474566 0.886067
23 3 0.645536 0.564218 0.896976
24 4 0.634346 0.421825 0.888839
25 1 0.683831 0.548118 0.794241
26 3 0.684468 0.642973 0.796126
27 4 0.700568 0.533882 0.735502
28 1 0.590311 0.665233 0.784768
29 3 0.59723 0.73428 0.851567
30 4 0.539143 0.648507 0.759811
31 1 0.561692 0.674753 0.93643
32 3 0.61402 0.740789 0.983361
33 4 0.554656 0.622233 0.969684
34 1 0.701659 0.685899 0.96636
35 3 0.744968 0.777795 0.961108
36 4 0.741075 0.640186 0.955674
37 1 0.704236 0.794514 0.855845
38 3 0.650465 0.86959 0.838051
39 4 0.706545 0.781304 0.79568
40 1 0.595212 0.844783 0.930737
41 3 0.533116 0.896396 0.88732
42 5 0.635852 0.85835 0.958078
43 1 0.515684 0.837586 0.797471
44 3 0.473474 0.760824 0.803611
45 4 0.544727 0.827101 0.741986
46 1 0.379727 0.812969 0.772756
47 3 0.388589 0.789085 0.676526
48 4 0.34243 0.861075 0.78222
49 1 0.318107 0.719123 0.674173
50 3 0.319745 0.745292 0.58324
51 4 0.266495 0.689048 0.68797
52 1 0.276623 0.840299 0.59967
53 3 0.320556 0.895841 0.545501
54 4 0.228703 0.861995 0.602497
55 1 0.398688 0.908908 0.615732
56 3 0.455952 0.910255 0.54739
57 4 0.419997 0.922645 0.673388
58 1 0.457714 0.797188 0.537333
59 3 0.453142 0.800785 0.436208
60 4 0.461435 0.740347 0.563458
61 1 0.347603 0.795795 0.44199
62 3 0.35521 0.839802 0.354896
63 4 0.296508 0.795818 0.457123
64 1 0.383404 0.941942 0.40922
65 3 0.432737 0.970664 0.33707
66 4 0.370906 0.990108 0.442247
67 1 0.514579 0.910678 0.383216
68 3 0.551167 0.867025 0.304344
69 4 0.555992 0.893586 0.426157
70 1 0.500177 0.772622 0.316314
71 3 0.488086 0.757672 0.223958
72 4 0.478303 0.727677 0.357381
73 1 0.420367 0.855614 0.221722
74 3 0.38072 0.816504 0.141363
75 5 0.445904 0.832342 0.196208
76 1 0.322856 0.753983 0.215904
77 3 0.243098 0.774837 0.177462
78 4 0.324191 0.699905 0.248677
79 1 0.20447 0.807221 0.27563
80 3 0.206498 0.733864 0.344936
81 4 0.163767 0.798845 0.231473
82 1 0.133897 0.784303 0.406582
83 3 0.0981092 0.704717 0.435919
84 4 0.103408 0.828687 0.440228
85 1 0.0414137 0.689249 0.340336
86 3 0.0469852 0.58865 0.327145
87 4 0.00841404 0.702182 0.285627
88 1 0.14713 0.596887 0.304594
89 3 0.174782 0.526703 0.364723
90 4 0.184305 0.617207 0.265693
91 1 0.192136 0.595592 0.44692
92 3 0.157919 0.524437 0.49984
93 4 0.214006 0.631832 0.488962
94 1 0.0599061 0.552843 0.479794
95 3 0.038317 0.459333 0.483795
96 4 0.00771418 0.578902 0.455133
97 1 0.0687943 0.438571 0.379788
98 3 0.101958 0.354939 0.404103
99 4 0.0675354 0.440708 0.317023
100 1 0.19372 0.399032 0.427977
101 3 0.217573 0.341327 0.503296
102 4 0.241361 0.430531 0.414636
103 1 0.151946 0.392549 0.577208
104 3 0.136646 0.315756 0.620207
105 4 0.122541 0.432655 0.603312
106 1 0.0844427 0.26435 0.537709
107 3 0.120788 0.237817 0.455865
108 4 0.0338672 0.268854 0.502136
109 1 0.180435 0.160551 0.500286
110 3 0.159422 0.101871 0.426645
111 5 0.161466 0.196267 0.486828
112 1 0.131142 0.183287 0.349148
113 3 0.173773 0.166949 0.272362
114 4 0.101996 0.240256 0.336436
115 1 0.268215 0.190253 0.298922
116 3 0.33199 0.238961 0.330438
117 4 0.262771 0.22723 0.248907
118 1 0.380447 0.153736 0.372683
119 3 0.407301 0.0948811 0.306993
120 4 0.379938 0.121245 0.428197
121 1 0.50286 0.132844 0.294924
122 3 0.491783 0.127561 0.196544
123 4 0.508208 0.074969 0.295744
124 1 0.473621 0.24191 0.189148
125 3 0.560366 0.267155 0.175172
126 4 0.45443 0.298956 0.213248
127 1 0.545216 0.266978 0.0607576
128 3 0.622268 0.322471 0.0685553
129 4 0.525944 0.279901 0.00348593
130 1 0.565862 0.41312 0.105315
131 3 0.618324 0.448385 0.179781
132 4 0.520422 0.442173 0.123791
133 1 0.656195 0.35237 0.204312
134 3 0.722305 0.406135 0.244437
135 4 0.675308 0.29187 0.203372
136 1 0.755645 0.434428 0.127379
137 3 0.789601 0.521462 0.165247
138 4 0.76432 0.434631 0.0648575
139 1 0.700052 0.571719 0.152552
140 3 0.698134 0.618016 0.241036
141 4 0.659588 0.599843 0.12252
142 1 0.64451 0.527241 0.297525
143 3 0.695651 0.563283 0.371555
144 4 0.629447 0.471186 0.309892
145 1 0.779927 0.521457 0.322399
146 3 0.827276 0.596936 0.342828
147 4 0.809824 0.467882 0.305188
148 1 0.819326 0.651706 0.244306
149 3 0.820755 0.734478 0.291135
150 4 0.806949 0.659041 0.184224
151 1 0.729024 0.735294 0.33429
152 3 0.745415 0.767996 0.418557
153 4 0.6691 0.726884 0.321063
154 1 0.754404 0.667415 0.471781
155 3 0.828641 0.693471 0.517194
156 4 0.738053 0.61079 0.490161
157 1 0.88755 0.677871 0.43632
158 3 0.954581 0.61856 0.465763
159 5 0.93213 0.687389 0.43599
160 1 0.904256 0.524328 0.480019
161 3 0.935451 0.51631 0.396258
162 4 0.859745 0.488764 0.500042
163 1 0.936955 0.401268 0.380147
164 3 0.875347 0.345829 0.395745
165 4 0.985767 0.369582 0.395247
166 1 0.859117 0.307639 0.293884
167 3 0.82939 0.227186 0.342503
168 4 0.86093 0.304736 0.234572
169 1 0.921432 0.190695 0.3666
170 3 0.886855 0.155808 0.443192
171 4 0.974073 0.179668 0.356949
172 1 0.883344 0.250477 0.498496
173 3 0.809662 0.228581 0.540031
174 4 0.897822 0.30757 0.525314
175 1 0.751908 0.272057 0.460987
176 3 0.684684 0.202968 0.462434
177 4 0.73395 0.303529 0.414973
178 1 0.750235 0.136731 0.407406
179 3 0.752922 0.0479261 0.458706
180 4 0.766951 0.111473 0.354101
181 1 0.821463 0.0746475 0.529588
182 3 0.784706 0.0093952 0.587566
183 4 0.864847 0.103646 0.543237
184 1 0.747474 0.0829466 0.656683
185 3 0.788554 0.0514356 0.73437
186 5 0.749988 0.0502401 0.624519
187 1 0.84549 0.132973 0.763677
188 3 0.918147 0.0804761 0.738424
189 4 0.88924 0.0956122 0.743704
ITEM: TIMESTEP
6000
ITEM: NUMBER OF ATOMS
189
ITEM: BOX BOUNDS ss ss ss
-2.4720010540355791e+01 8.5596732305491630e-01
-1.8108815310841205e+01 1.2261105526058595e+01
8.8619506043570038e+00 3.4707660692242207e+01
ITEM: ATOMS id type xs ys zs
1 1 0.398601 0.274558 0.483807
2 3 0.453946 0.3082 0.552481
3 4 0.389048 0.280314 0.427579
4 1 0.516268 0.355429 0.491266
5 3 0.517352 0.409447 0.547529
6 4 0.529604 0.375614 0.438435
7 1 0.411635 0.420255 0.555924
8 3 0.422226 0.448958 0.64072
9 4 0.352286 0.40642 0.543714
10 1 0.440624 0.372852 0.698584
11 3 0.506482 0.412904 0.74737
12 4 0.422761 0.332292 0.711914
13 1 0.586703 0.386691 0.677134
14 3 0.630986 0.458757 0.700052
15 4 0.621746 0.362288 0.643183
16 1 0.569212 0.507269 0.625609
17 3 0.565122 0.572804 0.681661
18 4 0.548516 0.509706 0.572302
19 1 0.472323 0.544591 0.728324
20 3 0.50331 0.572777 0.810952
21 4 0.416887 0.534885 0.719179
22 1 0.552436 0.487953 0.827722
23 3 0.613993 0.526104 0.878571
24 4 0.566106 0.437907 0.833006
25 1 0.681464 0.543357 0.791486
26 3 0.698855 0.619754 0.809312
27 4 0.715044 0.539638 0.742537
28 1 0.610533 0.656712 0.778016
29 3 0.610269 0.70261 0.852178
30 4 0.561428 0.659775 0.74136
31 1 0.561973 0.639674 0.916189
32 3 0.610732 0.673748 0.981504
33 4 0.529325 0.59725 0.934316
34 1 0.703072 0.629906 0.971146
35 3 0.752118 0.699562 0.992578
36 4 0.73165 0.595399 0.943817
37 1 0.735863 0.729691 0.892521
38 3 0.72283 0.799705 0.924227
39 4 0.751619 0.733196 0.837635
40 1 0.615996 0.796187 0.919866
41 3 0.559556 0.854556 0.88161
42 5 0.61763 0.810074 0.881574
43 1 0.585968 0.827593 0.780907
44 3 0.521997 0.772852 0.771552
45 4 0.619425 0.801612 0.740132
46 1 0.439318 0.831462 0.750255
47 3 0.461092 0.834041 0.663982
48 4 0.407182 0.868521 0.766909
49 1 0.378336 0.784529 0.632793
50 3 0.399516 0.823917 0.550723
51 4 0.323506 0.765759 0.623337
52 1 0.36646 0.907143 0.583765
53 3 0.428323 0.933243 0.531002
54 4 0.351239 0.945037 0.624268
55 1 0.521361 0.912989 0.582979
56 3 0.566462 0.893625 0.509775
57 4 0.549913 0.918138 0.632798
58 1 0.528714 0.807175 0.515074
59 3 0.535089 0.803044 0.418873
60 4 0.501252 0.764338 0.532041
61 1 0.44362 0.849845 0.403831
62 3 0.485489 0.886729 0.331268
63 4 0.387165 0.862717 0.418276
64 1 0.513264 0.962467 0.390058
65 3 0.587342 0.962016 0.327237
66 4 0.507392 0.997503 0.430939
67 1 0.644679 0.911667 0.393796
68 3 0.671483 0.874728 0.320172
69 4 0.675276 0.889981 0.439595
70 1 0.597779 0.817367 0.296521
71 3 0.590646 0.836179 0.207236
72 4 0.572411 0.780418 0.316809
73 1 0.522202 0.906876 0.219925
74 3 0.467341 0.872976 0.157867
75 5 0.500701 0.907141 0.182977
76 1 0.383077 0.871618 0.225843
77 3 0.343593 0.924797 0.284791
78 4 0.375812 0.819727 0.228826
79 1 0.256404 0.884644 0.299617
80 3 0.23929 0.816839 0.336997
81 4 0.209053 0.899339 0.263449
82 1 0.198795 0.858098 0.429038
83 3 0.169452 0.784102 0.439546
84 4 0.170984 0.880058 0.472291
85 1 0.0897954 0.795758 0.358485
86 3 0.0862457 0.721455 0.332869
87 4 0.0568393 0.819685 0.316069
88 1 0.184915 0.727283 0.273242
89 3 0.214734 0.655476 0.292592
90 4 0.219913 0.760931 0.235101
91 1 0.272654 0.690438 0.377873
92 3 0.253931 0.618029 0.420571
93 4 0.307652 0.719295 0.414693
94 1 0.156909 0.650444 0.459621
95 3 0.116577 0.580183 0.441913
96 4 0.116385 0.673867 0.490719
97 1 0.0997076 0.592873 0.33611
98 3 0.110793 0.51658 0.324051
99 4 0.100805 0.617744 0.27907
100 1 0.219047 0.52049 0.341238
101 3 0.228548 0.452775 0.388328
102 4 0.274996 0.543394 0.334805
103 1 0.207335 0.482105 0.48274
104 3 0.145829 0.419308 0.499105
105 4 0.214408 0.510548 0.525854
106 1 0.0653825 0.464864 0.459657
107 3 0.0788948 0.411028 0.389964
108 4 0.0278466 0.496646 0.433104
109 1 0.0193107 0.345864 0.433952
110 3 0.0503024 0.303679 0.360669
111 5 0.0126116 0.321957 0.404201
112 1 0.0437556 0.379857 0.301455
113 3 0.124253 0.368822 0.251142
114 4 0.0425175 0.433151 0.287063
115 1 0.186537 0.326269 0.322088
116 3 0.16248 0.253097 0.304961
117 4 0.208483 0.324122 0.379028
118 1 0.240261 0.247346 0.226245
119 3 0.261113 0.272473 0.133802
120 4 0.184775 0.230031 0.205417
121 1 0.367515 0.244152 0.161766
122 3 0.399783 0.293329 0.0974931
123 4 0.357044 0.213502 0.117695
124 1 0.369869 0.369034 0.148189
125 3 0.46531 0.371077 0.154605
126 4 0.35073 0.396727 0.192367
127 1 0.480175 0.415959 0.0682875
128 3 0.536754 0.472519 0.0965211
129 4 0.472128 0.419237 0.0111763
130 1 0.470328 0.508044 0.169956
131 3 0.536938 0.505915 0.237147
132 4 0.426093 0.519785 0.202932
133 1 0.583587 0.429828 0.218049
134 3 0.667301 0.467082 0.24905
135 4 0.587947 0.388066 0.181296
136 1 0.688826 0.497067 0.151052
137 3 0.728899 0.565186 0.192649
138 4 0.697859 0.503588 0.0947599
139 1 0.638605 0.604293 0.215855
140 3 0.664695 0.608779 0.300745
141 4 0.578397 0.616191 0.202698
142 1 0.611064 0.539667 0.33963
143 3 0.677239 0.539751 0.405969
144 4 0.583573 0.499436 0.34852
145 1 0.756395 0.511253 0.343715
146 3 0.81354 0.561998 0.385894
147 4 0.78173 0.474348 0.31744
148 1 0.797395 0.629406 0.3082
149 3 0.809757 0.685429 0.374335
150 4 0.785784 0.653988 0.258987
151 1 0.715339 0.673722 0.428644
152 3 0.758817 0.680638 0.506792
153 4 0.657671 0.672539 0.433469
154 1 0.790971 0.592451 0.512764
155 3 0.875163 0.615287 0.541859
156 4 0.786815 0.540524 0.515245
157 1 0.924628 0.612994 0.45339
158 3 0.995281 0.560766 0.472877
159 5 0.967761 0.618163 0.439931
160 1 0.942509 0.490919 0.425936
161 3 0.93578 0.505406 0.337368
162 4 0.914977 0.463945 0.467626
163 1 0.943071 0.42174 0.299269
164 3 0.898722 0.359522 0.3412
165 4 0.99791 0.396327 0.291765
166 1 0.823957 0.349067 0.255119
167 3 0.814964 0.271913 0.281115
168 4 0.798363 0.352754 0.202747
169 1 0.918652 0.247288 0.261988
170 3 0.90833 0.200081 0.332509
171 4 0.969971 0.243884 0.242912
172 1 0.94217 0.26624 0.400026
173 3 0.886875 0.236448 0.473005
174 4 0.971367 0.304696 0.425744
175 1 0.80214 0.285406 0.445372
176 3 0.750089 0.223412 0.476505
177 4 0.767745 0.321577 0.412241
178 1 0.760845 0.185914 0.383057
179 3 0.777578 0.107482 0.39975
180 4 0.747179 0.180775 0.323981
181 1 0.88471 0.115223 0.412013
182 3 0.965588 0.143858 0.431337
183 4 0.915532 0.0950167 0.368146
184 1 0.953102 0.16183 0.534112
185 3 0.988335 0.137211 0.621217
186 5 0.919226 0.184255 0.519897
187 1 0.911904 0.0748369 0.629964
188 3 0.874957 0.0108448 0.582087
189 4 0.965724 0.0686581 0.654208
ITEM: TIMESTEP
8000
ITEM: NUMBER OF ATOMS
189
ITEM: BOX BOUNDS ss ss ss
-2.2266603562013877e+01 3.8176715251743154e+00
-1.4722119786489328e+01 1.2820007659913806e+01
8.0985882819674782e+00 3.3893192342776445e+01
ITEM: ATOMS id type xs ys zs
1 1 0.480244 0.110007 0.40993
2 3 0.492946 0.170339 0.471141
3 4 0.515865 0.0912114 0.363092
4 1 0.504812 0.240099 0.401314
5 3 0.472436 0.30067 0.468182
6 4 0.491421 0.279385 0.355009
7 1 0.383926 0.245064 0.487043
8 3 0.398785 0.2634 0.572882
9 4 0.333585 0.223545 0.483279
10 1 0.457789 0.189974 0.602452
11 3 0.509104 0.232026 0.669379
12 4 0.469863 0.136774 0.598618
13 1 0.577037 0.265502 0.588603
14 3 0.590723 0.344098 0.620983
15 4 0.614818 0.264175 0.54731
16 1 0.513327 0.387604 0.57643
17 3 0.488024 0.434153 0.647262
18 4 0.492199 0.406924 0.530688
19 1 0.418951 0.37304 0.693229
20 3 0.446554 0.395382 0.779547
21 4 0.379615 0.328711 0.695425
22 1 0.517843 0.313733 0.776809
23 3 0.584524 0.349368 0.832022
24 4 0.53894 0.260666 0.756755
25 1 0.626647 0.402652 0.744397
26 3 0.635854 0.471012 0.799884
27 4 0.648812 0.407511 0.693932
28 1 0.540981 0.506031 0.785449
29 3 0.539534 0.532053 0.87411
30 4 0.491158 0.519506 0.762815
31 1 0.513491 0.443207 0.91058
32 3 0.563313 0.457257 0.990825
33 4 0.485016 0.399563 0.92017
34 1 0.655106 0.424603 0.94339
35 3 0.710465 0.482093 0.984754
36 4 0.682191 0.38567 0.915305
37 1 0.691554 0.550507 0.900641
38 3 0.676059 0.629833 0.942095
39 4 0.703771 0.561467 0.843103
40 1 0.566886 0.615964 0.955354
41 3 0.487585 0.649224 0.933453
42 5 0.588215 0.61488 0.923195
43 1 0.525679 0.67268 0.835494
44 3 0.453856 0.621049 0.80468
45 4 0.547959 0.66838 0.777933
46 1 0.379218 0.686517 0.829158
47 3 0.390072 0.721106 0.747597
48 4 0.351084 0.718276 0.867442
49 1 0.30034 0.672675 0.711254
50 3 0.299131 0.735836 0.653159
51 4 0.250742 0.638796 0.700235
52 1 0.248593 0.797307 0.722018
53 3 0.296923 0.8628 0.683233
54 4 0.223514 0.822145 0.768404
55 1 0.386171 0.845094 0.731148
56 3 0.444058 0.85292 0.658617
57 4 0.421082 0.840074 0.775958
58 1 0.443251 0.755568 0.628553
59 3 0.460252 0.787642 0.542675
60 4 0.42944 0.704387 0.622907
61 1 0.371467 0.822012 0.520277
62 3 0.392322 0.892279 0.477804
63 4 0.311027 0.815661 0.523405
64 1 0.400932 0.945756 0.568742
65 3 0.470359 0.990039 0.53143
66 4 0.386768 0.969095 0.61686
67 1 0.536409 0.909446 0.562341
68 3 0.575715 0.924558 0.479907
69 4 0.561075 0.861395 0.586715
70 1 0.494064 0.873126 0.429297
71 3 0.474823 0.914882 0.351305
72 4 0.479798 0.821318 0.417864
73 1 0.413656 0.982167 0.392964
74 3 0.349353 0.976069 0.327487
75 5 0.394068 0.984018 0.429599
76 1 0.308019 0.890727 0.353829
77 3 0.254004 0.921935 0.419648
78 4 0.316435 0.838122 0.350513
79 1 0.169763 0.867872 0.397859
80 3 0.195928 0.793227 0.435954
81 4 0.126793 0.865196 0.358511
82 1 0.137145 0.800081 0.522945
83 3 0.126891 0.71267 0.530118
84 4 0.109888 0.829088 0.564083
85 1 0.04997 0.706435 0.453698
86 3 0.0932555 0.634553 0.423469
87 4 0.00526572 0.725271 0.41773
88 1 0.15368 0.679941 0.358015
89 3 0.210323 0.60862 0.368227
90 4 0.183045 0.711096 0.324368
91 1 0.231036 0.635868 0.466985
92 3 0.207882 0.559109 0.492074
93 4 0.263498 0.651029 0.513301
94 1 0.108319 0.574735 0.513293
95 3 0.0908229 0.495361 0.491845
96 4 0.0498831 0.599369 0.518118
97 1 0.0984959 0.510397 0.385249
98 3 0.139295 0.426905 0.367671
99 4 0.0947061 0.539542 0.330002
100 1 0.234623 0.470904 0.38591
101 3 0.263538 0.394195 0.401276
102 4 0.282313 0.50403 0.3892
103 1 0.231713 0.381433 0.503879
104 3 0.225379 0.292266 0.502346
105 4 0.221476 0.394536 0.558189
106 1 0.141224 0.294607 0.438867
107 3 0.201813 0.289496 0.374255
108 4 0.0816246 0.304929 0.424337
109 1 0.147413 0.207544 0.326696
110 3 0.15254 0.213997 0.232289
111 5 0.153913 0.235177 0.295524
112 1 0.154495 0.31704 0.234189
113 3 0.22814 0.326895 0.180744
114 4 0.126011 0.365542 0.254503
115 1 0.297675 0.328225 0.258876
116 3 0.363116 0.318832 0.188135
117 4 0.32289 0.300913 0.303217
118 1 0.305748 0.253828 0.132593
119 3 0.301213 0.273629 0.0387783
120 4 0.279178 0.209305 0.125725
121 1 0.25945 0.365073 0.0532255
122 3 0.313753 0.417104 0.00590128
123 4 0.210642 0.385363 0.0571585
124 1 0.352896 0.451002 0.10065
125 3 0.332407 0.493328 0.177992
126 4 0.345354 0.495004 0.0691196
127 1 0.386848 0.440249 0.245742
128 3 0.402733 0.524055 0.278629
129 4 0.420108 0.39884 0.260695
130 1 0.491949 0.535491 0.223656
131 3 0.541573 0.572265 0.292158
132 4 0.459616 0.582307 0.230023
133 1 0.578728 0.480634 0.331334
134 3 0.654349 0.527281 0.349721
135 4 0.57589 0.431063 0.343332
136 1 0.68187 0.529912 0.244452
137 3 0.720295 0.602358 0.264106
138 4 0.685397 0.516826 0.18179