LAMMPS protain data file

         387  atoms
         514  bonds
           0  angles
           0  dihedrals
           0  impropers

           5  atom types
           5  bond types
           0  angle types
           0  dihedral types
           0  improper types

-200.0	200.0	xlo xhi
-200.0	200.0	ylo yhi
-200.0	200.0	zlo zhi

Masses

           1	27.0
           2	14.0
           3	28.0
           4	60.0
           5	60.0

Atoms

           1	1	1	1	0.0	0.78899997	7.76999998	44.34000015
           2	1	1	3	0.0	1.46000004	9.2489996	42.60300064
           3	1	1	4	0.0	-0.71399999	7.54400015	44.06299973
           4	1	2	1	0.0	2.63400006	7.27099991	41.11600113
           5	1	2	3	0.0	1.44400001	5.25199986	40.51300049
           6	1	2	4	0.0	4.09600019	6.91400003	41.04700089
           7	1	3	1	0.0	0.59100002	6.43300009	38.09799957
           8	1	3	3	0.0	2.51999998	6.38399982	36.68500137
           9	1	3	4	0.0	-0.31799999	7.454	37.4679985
          10	1	4	1	0.0	1.57099998	4.46099997	35.07300186
          11	1	4	3	0.0	-0.20900001	5.72200012	34.1269989
          12	1	4	5	0.0	0.94099998	3.30779061	32.37080015
          13	1	5	1	0.0	0.92900002	6.05999994	31.63100052
          14	1	5	3	0.0	-1.33899999	6.71799994	31.2859993
          15	1	5	4	0.0	1.76699996	5.78000021	30.43000031
          16	1	6	1	0.0	-2.24399996	4.16200018	30.77599907
          17	1	6	3	0.0	-4.4380002	4.63800001	31.73900032
          18	1	6	4	0.0	-2.24300003	2.72799993	30.20199966
          19	1	7	1	0.0	-3.61599994	4.11600018	34.31100082
          20	1	7	3	0.0	-5.20300007	5.86999989	34.8429985
          21	1	7	4	0.0	-2.75900006	3.6329999	35.43000031
          22	1	8	1	0.0	-3.44700003	7.92299986	34.39899826
          23	1	8	3	0.0	-5.30900002	9.09300041	33.44599915
          24	1	8	4	0.0	-2.15300012	8.74800014	34.43799973
          25	1	9	1	0.0	-4.83900023	8.21000004	30.82600021
          26	1	9	3	0.0	-7.19099998	8.6619997	30.75900078
          27	1	9	4	0.0	-4.33599997	7.42299986	29.61499977
          28	1	10	1	0.0	-7.79899979	6.12099981	31.84700012
          29	1	10	3	0.0	-9.70899963	7.31799984	32.61800003
          30	1	10	4	0.0	-7.6869998	4.68900013	32.40000153
          31	1	11	1	0.0	-8.44299984	8.16100025	35.01800156
          32	1	11	3	0.0	-9.77299976	10.14700031	34.84000015
          33	1	11	4	0.0	-7.48799992	8.32600021	36.16799927
          34	1	12	1	0.0	-8.1420002	11.45499992	33.10499954
          35	1	12	3	0.0	-10.19799995	12.2489996	32.16999817
          36	1	12	4	0.0	-6.91599989	11.93500042	32.34700012
          37	1	13	1	0.0	-10.59700012	10.14500046	30.5170002
          38	1	13	3	0.0	-12.86499977	10.72000027	30.93099976
          39	1	13	4	0.0	-10.40499973	8.89999962	29.67200089
          40	1	14	1	0.0	-13.02400017	9.19299984	33.3390007
          41	1	14	3	0.0	-14.65100002	10.83300018	34.04199982
          42	1	14	4	0.0	-12.65100002	8.2840004	34.52799988
          43	1	15	1	0.0	-12.75199986	12.79599953	34.57500076
          44	1	15	3	0.0	-13.01299953	14.97700024	33.7140007
          45	1	15	4	0.0	-11.54800034	13.34300041	35.3390007
          46	1	16	1	0.0	-13.98200035	14.27099991	31.23699951
          47	1	16	3	0.0	-13.24400043	16.06399918	29.88400078
          48	1	16	5	0.0	-13.5170002	13.68893597	28.66290803
          49	1	17	1	0.0	-10.5710001	15.69499969	30.18000031
          50	1	17	3	0.0	-9.69900036	16.38299942	28.07799911
          51	1	17	4	0.0	-9.2510004	15.49199963	30.95700073
          52	1	18	1	0.0	-10.54300022	14.31799984	26.625
          53	1	18	3	0.0	-12.55799961	15.42500019	25.90200043
          54	1	18	4	0.0	-10.92300034	12.92099953	26.17300034
          55	1	19	1	0.0	-11.14500046	17.2689991	24.24399948
          56	1	19	3	0.0	-12.44400024	19.29500008	24.5739994
          57	1	19	4	0.0	-12.1960001	16.74300003	23.24900055
          58	1	20	1	0.0	-11.70600033	19.57099915	27.16500092
          59	1	20	3	0.0	-9.9090004	21.0529995	26.63999939
          60	1	20	4	0.0	-11.24300003	19.32099915	28.57299995
          61	1	21	1	0.0	-11.63799953	23.09399986	25.625
          62	1	21	3	0.0	-9.74199963	23.61899948	24.17000008
          63	1	21	4	0.0	-10.89099979	24.04800034	26.57900047
          64	1	22	1	0.0	-10.14000034	21.47500038	22.52799988
          65	1	22	3	0.0	-7.95499992	20.74799919	21.95499992
          66	1	22	5	0.0	-10.93200016	20.25667018	19.80198509
          67	1	23	1	0.0	-7.36100006	19.47200012	24.18600082
          68	1	23	3	0.0	-8.22299957	17.52499962	25.30800056
          69	1	23	4	0.0	-6.59299994	20.05200005	25.3920002
          70	1	24	1	0.0	-7.21400023	15.73099995	23.38899994
          71	1	24	3	0.0	-5.47200012	15.74300003	25.0189991
          72	1	24	4	0.0	-6.66599989	15.18299961	22.0720005
          73	1	25	1	0.0	-6.27600002	13.29599953	26.16200066
          74	1	25	3	0.0	-4.16800022	13.45499992	27.26300049
          75	1	25	4	0.0	-6.82600021	11.88199997	26.23500061
          76	1	26	1	0.0	-2.64299989	12.85200024	24.95599937
          77	1	26	3	0.0	-0.90499997	14.01200008	26.13800049
          78	1	26	5	0.0	-4.09399986	11.17839765	22.9469318
          79	1	27	1	0.0	-2.00200009	16.48999977	25.86000061
          80	1	27	3	0.0	-0.87099999	16.76799965	27.9279995
          81	1	27	4	0.0	-2.86899996	17.69599915	25.49600029
          82	1	28	1	0.0	-2.99799991	15.9989996	29.48600006
          83	1	28	3	0.0	-1.28999996	15.25599957	31.01300049
          84	1	28	4	0.0	-4.46999979	15.70899963	29.85700035
          85	1	29	1	0.0	-0.949	12.7329998	29.87800026
          86	1	29	3	0.0	1.31400001	12.98400021	30.46899986
          87	1	29	4	0.0	-1.23599994	11.39099979	29.13100052
          88	1	30	1	0.0	2.09200001	14.41699982	28.20199966
          89	1	30	3	0.0	3.53900003	15.56799984	29.78199959
          90	1	30	4	0.0	2.05299997	14.98499966	26.77799988
          91	1	31	1	0.0	1.70799994	17.4279995	30.51499939
          92	1	31	3	0.0	2.96099997	17.24900055	32.50099945
          93	1	31	4	0.0	0.51599997	18.35199928	30.65500069
          94	1	32	1	0.0	1.579	15.1960001	33.64099884
          95	1	32	3	0.0	3.60100007	14.4659996	34.65499878
          96	1	32	4	0.0	0.528	14.18400002	34.05199814
          97	1	33	1	0.0	4.71500015	13.25300026	32.47299957
          98	1	33	3	0.0	6.65899992	14.02600002	33.6590004
          99	1	33	4	0.0	4.99300003	12.6260004	31.11100006
         100	1	34	1	0.0	6.92600012	16.28700066	32.15999985
         101	1	34	3	0.0	7.78200006	17.84199905	33.73199844
         102	1	34	4	0.0	7.04400015	16.9829998	30.80999947
         103	1	35	1	0.0	5.38500023	18.34300041	35.04100037
         104	1	35	3	0.0	6.57200003	18.14500046	37.13600159
         105	1	35	4	0.0	3.91000009	18.80400085	35.26300049
         106	1	36	1	0.0	5.49100018	15.70100021	37.71099854
         107	1	36	3	0.0	6.22300005	13.67099953	38.67599869
         108	1	36	4	0.0	4.16300011	15.60299969	38.4640007
         109	1	37	1	0.0	6.56500006	12.35700035	36.19800186
         110	1	37	3	0.0	5.91599989	10.54899979	37.65000153
         111	1	37	4	0.0	7.98699999	12.06700039	36.74000168
         112	1	38	1	0.0	3.14199996	11.04899979	37.18099976
         113	1	38	3	0.0	2.33599997	9.99699974	39.2140007
         114	1	38	4	0.0	3.1400001	9.66300011	36.55799866
         115	1	39	1	0.0	3.61299992	11.6590004	40.88800049
         116	1	39	3	0.0	2.83699989	13.86999989	41.40499878
         117	1	39	4	0.0	5.01399994	11.85999966	41.35800171
         118	1	40	1	0.0	0.65200001	13.04199982	42.86700058
         119	1	40	3	0.0	0.51899999	14.83500004	44.48799896
         120	1	40	4	0.0	-0.49599999	12.23900032	43.50299835
         121	1	41	1	0.0	2.95000005	14.30500031	45.5909996
         122	1	41	3	0.0	4.72599983	15.80799961	46.1629982
         123	1	41	4	0.0	3.43799996	13.29199982	46.61000061
         124	1	42	1	0.0	5.53399992	16.2840004	43.59700012
         125	1	42	3	0.0	4.079	18.1420002	44.08399963
         126	1	42	4	0.0	5.66499996	16.26600075	42.09799957
         127	1	43	1	0.0	6.10300016	19.80800056	44.91500092
         128	1	43	3	0.0	8.36900043	19.9109993	44.18500137
         129	1	43	4	0.0	6.06099987	19.9810009	46.49200058
         130	1	44	1	0.0	8.45600033	22.46899986	43.46900177
         131	1	44	3	0.0	7.41900015	24.57099915	43.79199982
         132	1	44	4	0.0	8.49400043	22.59600067	41.95100021
         133	1	45	1	0.0	9.25599957	25.32999992	45.85200119
         134	1	45	3	0.0	11.08600044	26.07600021	44.52299881
         135	1	45	4	0.0	10.0010004	25.00300026	47.16999817
         136	1	46	1	0.0	9.83699989	28.42700005	43.68799973
         137	1	46	3	0.0	10.50399971	29.73999977	45.58100128
         138	1	46	4	0.0	8.73099995	28.96999931	42.77899933
         139	1	47	1	0.0	11.60700035	31.7670002	43.88700104
         140	1	47	3	0.0	11.08100033	33.04499817	45.78900146
         141	1	47	4	0.0	12.18400002	32.43999863	42.64099884
         142	1	48	1	0.0	8.9289999	34.26100159	44.93500137
         143	1	48	3	0.0	6.88100004	33.95600128	46.10800171
         144	1	48	4	0.0	8.08100033	35.27500153	44.09899902
         145	1	49	1	0.0	7.73799992	31.86100006	47.63299942
         146	1	49	3	0.0	5.8039999	30.67000008	48.06900024
         147	1	49	5	0.0	8.49699974	29.71181663	45.90027685
         148	1	50	1	0.0	5.03499985	30.04100037	45.57300186
         149	1	50	3	0.0	6.74100018	28.36700058	45.4070015
         150	1	50	4	0.0	4.42500019	30.52099991	44.28499985
         151	1	51	1	0.0	5.04199982	26.20499992	45.26399994
         152	1	51	3	0.0	2.92700005	26.0510006	44.18099976
         153	1	51	4	0.0	4.92399979	25.42300034	46.59000015
         154	1	52	1	0.0	3.67600012	24.03199959	42.48400116
         155	1	52	3	0.0	4.4000001	22.0909996	43.63499832
         156	1	52	4	0.0	4.42399979	23.85300064	41.13199997
         157	1	53	1	0.0	1.64199996	21.10199928	43.77899933
         158	1	53	3	0.0	0.17200001	20.34399986	42.05400085
         159	1	53	4	0.0	0.53399998	21.45999908	44.80799866
         160	1	54	1	0.0	0.72899997	17.64500046	42.50600052
         161	1	54	3	0.0	2.03900003	17.79500008	40.46500015
         162	1	54	5	0.0	1.43200004	15.68647903	40.13930141
         163	1	55	1	0.0	0.50700003	15.66600037	39.32500076
         164	1	55	3	0.0	1.23500001	16.40800095	37.12799835
         165	1	55	4	0.0	-0.62	14.66399956	38.76599884
         166	1	56	1	0.0	-0.126	18.78000069	37.25299835
         167	1	56	3	0.0	0.35600001	21.08600044	37.12599945
         168	1	56	4	0.0	-1.60000002	18.97200012	36.85499954
         169	1	57	1	0.0	2.06200004	21.15699959	39.35400009
         170	1	57	3	0.0	1.87699997	23.42200089	38.66400146
         171	1	57	4	0.0	3.40799999	21.23600006	38.55599976
         172	1	58	1	0.0	-0.58099997	23.81399918	39.97200012
         173	1	58	3	0.0	0.391	24.40800095	42.03499985
         174	1	58	4	0.0	-2.03999996	23.34199905	40.35599899
         175	1	59	1	0.0	0.84399998	27.09600067	41.34600067
         176	1	59	3	0.0	-1.04900002	28.16200066	42.25299835
         177	1	59	4	0.0	1.33500004	28.20499992	40.43700027
         178	1	60	1	0.0	-0.051	28.47800064	44.77700043
         179	1	60	3	0.0	-0.94700003	30.50499916	45.46699905
         180	1	60	4	0.0	0.59799999	28.18199921	46.0870018
         181	1	61	1	0.0	0.259	32.20299911	43.87200165
         182	1	61	3	0.0	-1.74899995	33.43999863	43.97000122
         183	1	61	4	0.0	1.25100005	32.9129982	42.95999908
         184	1	62	1	0.0	-3.0480001	32.11800003	41.875
         185	1	62	3	0.0	-5.31799984	31.44199944	42.35200119
         186	1	62	4	0.0	-2.97199988	32.20299911	40.32600021
         187	1	63	1	0.0	-4.83199978	28.81200027	42.36600113
         188	1	63	3	0.0	-6.40199995	27.63899994	43.70999908
         189	1	63	4	0.0	-4.38800001	27.78700066	41.30899811
         190	1	64	1	0.0	-4.83099985	27.30900002	45.86199951
         191	1	64	3	0.0	-3.21199989	28.76499939	46.74300003
         192	1	64	4	0.0	-4.33400011	25.86300087	45.77299881
         193	1	65	1	0.0	-4.13500023	28.48699951	49.37099838
         194	1	65	3	0.0	-3.62800002	26.51600075	50.5909996
         195	1	65	4	0.0	-5.29699993	28.95100021	50.25899887
         196	1	66	1	0.0	-1.13699996	27.13899994	51.27299881
         197	1	66	3	0.0	0.094	27.43199921	53.31000137
         198	1	66	4	0.0	0.111	26.57999992	50.53300095
         199	1	67	1	0.0	-0.86299998	29.9829998	53.83800125
         200	1	67	3	0.0	0.85600001	31.32299995	54.83499908
         201	1	67	5	0.0	-1.15799999	28.44750609	51.50541252
         202	1	68	1	0.0	2.7579999	30.97500038	52.98699951
         203	1	68	3	0.0	4.34100008	32.0530014	51.60300064
         204	1	68	4	0.0	3.76200008	29.89500046	53.39799881
         205	1	69	1	0.0	2.71499991	32.31299973	49.37599945
         206	1	69	3	0.0	1.36300004	34.23500061	49.59400177
         207	1	69	4	0.0	1.93900001	31.6420002	48.19499969
         208	1	70	1	0.0	3.39899993	36.08599854	49.20700073
         209	1	70	3	0.0	1.699	37.71900177	49.51499939
         210	1	70	4	0.0	4.72300005	36.54000092	48.63600159
         211	1	71	1	0.0	0.58499998	37.68399811	47.1570015
         212	1	71	3	0.0	-0.81099999	36.92399979	45.40100098
         213	1	71	5	0.0	1.73500001	36.64468506	44.2056523
         214	1	72	1	0.0	-1.64999998	34.70999908	46.84799957
         215	1	72	3	0.0	-3.78900003	35.68199921	47.50500107
         216	1	72	4	0.0	-1.44400001	33.48799896	47.70800018
         217	1	73	1	0.0	-5.04899979	34.30799866	45.375
         218	1	73	3	0.0	-4.59000015	31.99600029	45.56600189
         219	1	73	4	0.0	-5.16499996	34.76499939	43.93999863
         220	1	74	1	0.0	-7.21500015	31.12999916	45.7859993
         221	1	74	3	0.0	-9.53899956	30.79400063	45.12799835
         222	1	74	4	0.0	-7.71600008	30.85099983	47.20199966
         223	1	75	1	0.0	-9.11299992	30.93600082	42.48600006
         224	1	75	3	0.0	-10.99800014	29.51300049	42.26200104
         225	1	75	4	0.0	-8.51799965	31.37299919	41.14400101
         226	1	76	1	0.0	-9.86299992	27.15600014	42.57400131
         227	1	76	3	0.0	-11.25199986	25.84700012	44.06000137
         228	1	76	4	0.0	-8.92099953	25.99900055	42.24100113
         229	1	77	1	0.0	-11.10400009	27.69300079	46.16799927
         230	1	77	3	0.0	-11.67700005	25.74099922	47.48600006
         231	1	77	4	0.0	-12.61299992	27.88199997	46.04800034
         232	1	78	1	0.0	-9.03299999	24.89699936	47.72399902
         233	1	78	3	0.0	-6.91599989	25.96800041	48.18000031
         234	1	78	4	0.0	-8.76299953	23.67099953	46.8030014
         235	1	79	1	0.0	-6.14900017	24.17300034	50.17300034
         236	1	79	3	0.0	-5.67000008	22.59499931	48.4129982
         237	1	79	4	0.0	-6.38100004	23.34000015	51.39199829
         238	1	80	1	0.0	-3.01999998	23.31399918	48.15800095
         239	1	80	3	0.0	-2.52600002	21.0529995	47.68700027
         240	1	80	4	0.0	-1.72000003	24.09199905	48.16799927
         241	1	81	1	0.0	-2.74099994	20.05800056	50.20500183
         242	1	81	3	0.0	-3.47799993	17.97500038	49.45199966
         243	1	81	4	0.0	-2.83599997	19.90099907	51.72200012
         244	1	82	1	0.0	-5.92799997	18.72400093	48.33100128
         245	1	82	3	0.0	-5.78499985	17.22299957	46.40299988
         246	1	82	4	0.0	-7.20699978	19.48399925	47.95600128
         247	1	83	1	0.0	-3.73300004	18.64800072	45.2179985
         248	1	83	3	0.0	-2.06399989	17.13199997	44.45600128
         249	1	83	4	0.0	-3.0940001	19.88800049	44.6570015
         250	1	84	1	0.0	-1.33700001	16.21800041	46.85300064
         251	1	84	3	0.0	-1.29100001	13.97900009	47.7879982
         252	1	84	4	0.0	-0.48800001	16.79299927	47.97900009
         253	1	85	1	0.0	-3.73799992	13.30200005	47.23400116
         254	1	85	3	0.0	-3.33899999	12.55900002	44.97900009
         255	1	85	4	0.0	-5.1880002	13.53899956	47.57400131
         256	1	86	1	0.0	-3.76600003	9.89599991	45.55799866
         257	1	86	3	0.0	-4.81699991	9.34500027	43.45800018
         258	1	86	4	0.0	-3.88199997	8.57600021	46.36600113
         259	1	87	1	0.0	-7.02400017	10.74400043	43.82799911
         260	1	87	3	0.0	-6.70200014	13.17300034	43.91600037
         261	1	87	4	0.0	-8.35400009	10.46000004	44.54499817
         262	1	88	1	0.0	-6.79300022	13.11200047	41.0019989
         263	1	88	3	0.0	-7.59600019	15.23200035	40.31100082
         264	1	88	4	0.0	-6.45100021	12.24100018	39.72999954
         265	1	89	1	0.0	-10.17000008	14.90200043	41.27000046
         266	1	89	3	0.0	-10.22900009	17.18899918	40.63999939
         267	1	89	4	0.0	-11.35700035	14.4119997	42.14199829
         268	1	90	1	0.0	-9.17300034	18.22100067	42.9620018
         269	1	90	3	0.0	-8.33300018	19.93300056	41.5019989
         270	1	90	4	0.0	-8.6420002	18.3220005	44.38499832
         271	1	91	1	0.0	-6.23400021	18.49200058	40.49499893
         272	1	91	3	0.0	-6.81400013	19.76799965	38.59600067
         273	1	91	4	0.0	-5.05800009	17.50600052	40.43700027
         274	1	92	1	0.0	-8.43099976	17.90500069	37.38700104
         275	1	92	3	0.0	-9.53499985	19.8409996	36.5530014
         276	1	92	4	0.0	-9.17800045	16.61100006	36.84500122
         277	1	93	1	0.0	-11.15400028	20.24399948	38.66199875
         278	1	93	3	0.0	-11.03199959	22.52099991	37.99300003
         279	1	93	4	0.0	-12.02400017	20.07099915	39.91500092
         280	1	94	1	0.0	-8.68799973	23.04299927	39.28099823
         281	1	94	3	0.0	-8.11400032	24.34300041	37.3429985
         282	1	94	4	0.0	-7.65999985	23.06399918	40.38999939
         283	1	95	1	0.0	-6.94799995	22.30599976	35.93199921
         284	1	95	3	0.0	-7.67700005	23.57999992	34.03099823
         285	1	95	4	0.0	-6.37799978	20.96699905	35.44900131
         286	1	96	1	0.0	-10.33100033	22.78199959	34.08200073
         287	1	96	3	0.0	-10.84899998	24.99300003	33.28900146
         288	1	96	4	0.0	-11.61299992	22.02000046	34.34000015
         289	1	97	1	0.0	-10.58500004	26.1760006	35.75600052
         290	1	97	3	0.0	-9.52700043	27.95599937	34.53300095
         291	1	97	4	0.0	-10.65799999	26.34199905	37.25299835
         292	1	98	1	0.0	-6.9920001	27.03199959	34.68299866
         293	1	98	3	0.0	-6.95699978	28.23999977	32.59999847
         294	1	98	4	0.0	-5.76999998	26.20800018	35.0890007
         295	1	99	1	0.0	-7.55200005	26.10499954	30.98800087
         296	1	99	3	0.0	-8.52799988	27.35400009	29.22400093
         297	1	99	4	0.0	-7.71799994	24.72200012	30.31599998
         298	1	100	1	0.0	-10.75399971	28.08799934	30.83399963
         299	1	100	3	0.0	-11.16600037	30.44099998	30.69799995
         300	1	100	4	0.0	-12.0170002	27.7840004	31.62299919
         301	1	101	1	0.0	-9.05500031	31.27599907	32.11500168
         302	1	101	3	0.0	-7.79500008	32.77600098	30.68600082
         303	1	101	4	0.0	-8.95600033	31.37800026	33.65200043
         304	1	102	1	0.0	-5.3920002	31.51600075	31.27199936
         305	1	102	3	0.0	-5.01599979	29.39900017	30.23800087
         306	1	102	5	0.0	-6.68900013	30.44319682	29.56276352
         307	1	103	1	0.0	-4.6500001	30.8239994	27.64100075
         308	1	103	3	0.0	-3.38700008	28.87599945	27.03499985
         309	1	103	4	0.0	-3.33200002	31.55900002	27.30999947
         310	1	104	1	0.0	-5.44000006	27.10199928	27.33200073
         311	1	104	3	0.0	-3.96000004	26.81399918	29.22599983
         312	1	104	5	0.0	-5.51800013	24.45591068	24.83399983
         313	1	105	1	0.0	-2.64199996	24.69799995	28.19400024
         314	1	105	3	0.0	-0.366	24.79199982	28.83399963
         315	1	105	4	0.0	-2.52200007	23.31299973	27.57900047
         316	1	106	1	0.0	0.069	27.36199951	27.87700081
         317	1	106	3	0.0	1.57099998	27.90200043	29.6420002
         318	1	106	4	0.0	-0.038	28.65200043	27.0720005
         319	1	107	1	0.0	-0.35800001	27.76399994	31.63899994
         320	1	107	3	0.0	1.329	26.99099922	33.18700027
         321	1	107	4	0.0	-1.71500003	27.58099937	32.29700089
         322	1	108	1	0.0	1.79700005	24.61000061	31.99900055
         323	1	108	3	0.0	3.0999999	24.35300064	30.01399994
         324	1	108	4	0.0	1.14499998	23.24900055	31.85400009
         325	1	109	1	0.0	5.42999983	25.38800049	30.9470005
         326	1	109	3	0.0	6.29300022	24.08499908	29.2140007
         327	1	109	4	0.0	6.68200016	25.9470005	31.69099998
         328	1	110	1	0.0	6.25500011	21.67099953	30.4659996
         329	1	110	3	0.0	5.88999987	20.66799927	28.38999939
         330	1	110	4	0.0	6.22200012	20.51300049	31.44300079
         331	1	111	1	0.0	3.30800009	21.23399925	28.08300018
         332	1	111	3	0.0	4.01900005	21.64699936	25.82299995
         333	1	111	4	0.0	1.76499999	21.47999954	28.32799911
         334	1	112	1	0.0	4.25699997	24.39500046	26.21100044
         335	1	112	3	0.0	5.89699984	24.45599937	24.49500084
         336	1	112	4	0.0	4.07299995	25.78700066	26.8920002
         337	1	113	1	0.0	7.90399981	23.25799942	25.94499969
         338	1	113	3	0.0	9.08199978	21.67499924	24.59900093
         339	1	113	4	0.0	8.91300011	23.49300003	27.05200005
         340	1	114	1	0.0	7.74800014	19.50600052	25.6420002
         341	1	114	3	0.0	6.91300011	17.72699928	24.32600021
         342	1	114	4	0.0	8.06000042	18.72500038	26.92099953
         343	1	115	1	0.0	4.27199984	18.56800079	24.31900024
         344	1	115	3	0.0	3.14700007	18.65099907	22.15699959
         345	1	115	4	0.0	3.18099999	18.40200043	25.35199928
         346	1	116	1	0.0	3.07399988	21.43700027	22.1989994
         347	1	116	3	0.0	4.99499989	21.35099983	20.68499947
         348	1	116	4	0.0	3.22799993	22.87100029	22.65500069
         349	1	117	1	0.0	3.46300006	20.63199997	18.49300003
         350	1	117	3	0.0	4.3039999	18.94799995	17.0189991
         351	1	117	5	0.0	2.99300003	20.02673208	16.22686413
         352	1	118	1	0.0	4.35900021	16.95700073	18.90600014
         353	1	118	3	0.0	1.94799995	16.64299965	18.92099953
         354	1	118	4	0.0	5.23799992	16.55500031	20.09900093
         355	1	119	1	0.0	1.99399996	14.05099964	18.1989994
         356	1	119	3	0.0	2.49000001	12.57999992	20.01600075
         357	1	119	4	0.0	2.25900006	12.9659996	17.1760006
         358	1	120	1	0.0	0.44999999	13.5340004	21.62700081
         359	1	120	3	0.0	-0.45699999	11.6079998	22.7689991
         360	1	120	4	0.0	-0.28400001	14.71399975	22.34900093
         361	1	121	1	0.0	-1.528	10.44200039	20.52799988
         362	1	121	3	0.0	-1.17900002	8.38799953	21.6760006
         363	1	121	4	0.0	-1.85899997	10.03600025	19.11700058
         364	1	122	1	0.0	1.63699996	8.42099953	21.27499962
         365	1	122	3	0.0	1.73000002	6.9460001	23.1609993
         366	1	122	4	0.0	3.07399988	8.90799999	21.05800056
         367	1	123	1	0.0	1.02199996	8.93099976	24.97699928
         368	1	123	3	0.0	-0.103	7.64599991	26.57299995
         369	1	123	4	0.0	0.84600002	10.29800034	25.6420002
         370	1	124	1	0.0	-2.1329999	6.75	24.80900002
         371	1	124	3	0.0	-2.73300004	4.58099985	23.85300064
         372	1	124	4	0.0	-3.47099996	7.37900019	24.34900093
         373	1	125	1	0.0	-0.32499999	3.99900007	22.76199913
         374	1	125	3	0.0	-0.23100001	2.8440001	24.8939991
         375	1	125	4	0.0	1.11899996	3.99799991	22.30400085
         376	1	126	1	0.0	-1.26199996	0.51700002	23.94400024
         377	1	126	3	0.0	-2.63000011	-0.47600001	25.58699989
         378	1	126	5	0.0	-1.14499998	-0.71349764	22.46923258
         379	1	127	1	0.0	-3.86299992	1.76499999	26.44499969
         380	1	127	3	0.0	-5.40100002	2.19099998	24.6439991
         381	1	127	4	0.0	-4.08900023	3.08500004	27.13699913
         382	1	128	1	0.0	-7.10699987	0.23	25.56299973
         383	1	128	3	0.0	-7.85099983	1.19599998	27.5890007
         384	1	128	4	0.0	-7.52299976	-1.18799996	25.90299988
         385	1	129	1	0.0	-9.49800014	3.09699988	26.35000038
         386	1	129	3	0.0	-10.83699989	2.89299989	24.40500069
         387	1	129	4	0.0	-8.91399956	4.51499987	26.29299927

Bond Coeffs

           1	200.0	3.77
           2	200.0	2.41
           3	200.0	2.50
           4	200.0	1.54
           5	200.0	1.54
Bonds

           1	2	1	2
           2	4	1	3
           3	1	1	4
           4	3	2	4
           5	2	4	5
           6	4	4	6
           7	1	4	7
           8	3	5	7
           9	2	7	8
          10	4	7	9
          11	1	7	10
          12	3	8	10
          13	2	10	11
          14	5	10	12
          15	1	10	13
          16	3	11	13
          17	2	13	14
          18	4	13	15
          19	1	13	16
          20	3	14	16
          21	2	16	17
          22	4	16	18
          23	1	16	19
          24	3	17	19
          25	2	19	20
          26	4	19	21
          27	1	19	22
          28	3	20	22
          29	2	22	23
          30	4	22	24
          31	1	22	25
          32	3	23	25
          33	2	25	26
          34	4	25	27
          35	1	25	28
          36	3	26	28
          37	2	28	29
          38	4	28	30
          39	1	28	31
          40	3	29	31
          41	2	31	32
          42	4	31	33
          43	1	31	34
          44	3	32	34
          45	2	34	35
          46	4	34	36
          47	1	34	37
          48	3	35	37
          49	2	37	38
          50	4	37	39
          51	1	37	40
          52	3	38	40
          53	2	40	41
          54	4	40	42
          55	1	40	43
          56	3	41	43
          57	2	43	44
          58	4	43	45
          59	1	43	46
          60	3	44	46
          61	2	46	47
          62	5	46	48
          63	1	46	49
          64	3	47	49
          65	2	49	50
          66	4	49	51
          67	1	49	52
          68	3	50	52
          69	2	52	53
          70	4	52	54
          71	1	52	55
          72	3	53	55
          73	2	55	56
          74	4	55	57
          75	1	55	58
          76	3	56	58
          77	2	58	59
          78	4	58	60
          79	1	58	61
          80	3	59	61
          81	2	61	62
          82	4	61	63
          83	1	61	64
          84	3	62	64
          85	2	64	65
          86	5	64	66
          87	1	64	67
          88	3	65	67
          89	2	67	68
          90	4	67	69
          91	1	67	70
          92	3	68	70
          93	2	70	71
          94	4	70	72
          95	1	70	73
          96	3	71	73
          97	2	73	74
          98	4	73	75
          99	1	73	76
         100	3	74	76
         101	2	76	77
         102	5	76	78
         103	1	76	79
         104	3	77	79
         105	2	79	80
         106	4	79	81
         107	1	79	82
         108	3	80	82
         109	2	82	83
         110	4	82	84
         111	1	82	85
         112	3	83	85
         113	2	85	86
         114	4	85	87
         115	1	85	88
         116	3	86	88
         117	2	88	89
         118	4	88	90
         119	1	88	91
         120	3	89	91
         121	2	91	92
         122	4	91	93
         123	1	91	94
         124	3	92	94
         125	2	94	95
         126	4	94	96
         127	1	94	97
         128	3	95	97
         129	2	97	98
         130	4	97	99
         131	1	97	100
         132	3	98	100
         133	2	100	101
         134	4	100	102
         135	1	100	103
         136	3	101	103
         137	2	103	104
         138	4	103	105
         139	1	103	106
         140	3	104	106
         141	2	106	107
         142	4	106	108
         143	1	106	109
         144	3	107	109
         145	2	109	110
         146	4	109	111
         147	1	109	112
         148	3	110	112
         149	2	112	113
         150	4	112	114
         151	1	112	115
         152	3	113	115
         153	2	115	116
         154	4	115	117
         155	1	115	118
         156	3	116	118
         157	2	118	119
         158	4	118	120
         159	1	118	121
         160	3	119	121
         161	2	121	122
         162	4	121	123
         163	1	121	124
         164	3	122	124
         165	2	124	125
         166	4	124	126
         167	1	124	127
         168	3	125	127
         169	2	127	128
         170	4	127	129
         171	1	127	130
         172	3	128	130
         173	2	130	131
         174	4	130	132
         175	1	130	133
         176	3	131	133
         177	2	133	134
         178	4	133	135
         179	1	133	136
         180	3	134	136
         181	2	136	137
         182	4	136	138
         183	1	136	139
         184	3	137	139
         185	2	139	140
         186	4	139	141
         187	1	139	142
         188	3	140	142
         189	2	142	143
         190	4	142	144
         191	1	142	145
         192	3	143	145
         193	2	145	146
         194	5	145	147
         195	1	145	148
         196	3	146	148
         197	2	148	149
         198	4	148	150
         199	1	148	151
         200	3	149	151
         201	2	151	152
         202	4	151	153
         203	1	151	154
         204	3	152	154
         205	2	154	155
         206	4	154	156
         207	1	154	157
         208	3	155	157
         209	2	157	158
         210	4	157	159
         211	1	157	160
         212	3	158	160
         213	2	160	161
         214	5	160	162
         215	1	160	163
         216	3	161	163
         217	2	163	164
         218	4	163	165
         219	1	163	166
         220	3	164	166
         221	2	166	167
         222	4	166	168
         223	1	166	169
         224	3	167	169
         225	2	169	170
         226	4	169	171
         227	1	169	172
         228	3	170	172
         229	2	172	173
         230	4	172	174
         231	1	172	175
         232	3	173	175
         233	2	175	176
         234	4	175	177
         235	1	175	178
         236	3	176	178
         237	2	178	179
         238	4	178	180
         239	1	178	181
         240	3	179	181
         241	2	181	182
         242	4	181	183
         243	1	181	184
         244	3	182	184
         245	2	184	185
         246	4	184	186
         247	1	184	187
         248	3	185	187
         249	2	187	188
         250	4	187	189
         251	1	187	190
         252	3	188	190
         253	2	190	191
         254	4	190	192
         255	1	190	193
         256	3	191	193
         257	2	193	194
         258	4	193	195
         259	1	193	196
         260	3	194	196
         261	2	196	197
         262	4	196	198
         263	1	196	199
         264	3	197	199
         265	2	199	200
         266	5	199	201
         267	1	199	202
         268	3	200	202
         269	2	202	203
         270	4	202	204
         271	1	202	205
         272	3	203	205
         273	2	205	206
         274	4	205	207
         275	1	205	208
         276	3	206	208
         277	2	208	209
         278	4	208	210
         279	1	208	211
         280	3	209	211
         281	2	211	212
         282	5	211	213
         283	1	211	214
         284	3	212	214
         285	2	214	215
         286	4	214	216
         287	1	214	217
         288	3	215	217
         289	2	217	218
         290	4	217	219
         291	1	217	220
         292	3	218	220
         293	2	220	221
         294	4	220	222
         295	1	220	223
         296	3	221	223
         297	2	223	224