ITEM: TIMESTEP
0
ITEM: NUMBER OF ATOMS
387
ITEM: BOX BOUNDS ss ss ss
-1.4691000019999999e+01 1.2224000019999998e+01
-1.2279999600000000e+00 3.7759001769999998e+01
1.6186864130000000e+01 5.4874999080000002e+01
ITEM: ATOMS id type xs ys zs
1 1 0.575144 0.230795 0.727694
2 3 0.600074 0.268731 0.682797
3 4 0.519302 0.224998 0.720534
4 1 0.643693 0.217996 0.644361
5 3 0.59948 0.166209 0.628775
6 4 0.698012 0.208839 0.642578
7 1 0.567787 0.196501 0.566353
8 3 0.639458 0.195245 0.52983
9 4 0.534014 0.22269 0.550069
10 1 0.604198 0.14592 0.488164
11 3 0.538064 0.178265 0.463712
12 5 0.580791 0.116341 0.418318
13 1 0.580346 0.186934 0.399196
14 3 0.49608 0.203812 0.390278
15 4 0.611481 0.179752 0.368153
16 1 0.462456 0.138251 0.377096
17 3 0.38094 0.15046 0.401987
18 4 0.462493 0.10147 0.362259
19 1 0.411481 0.137071 0.468468
20 3 0.352517 0.182061 0.482218
21 4 0.443322 0.124683 0.497391
22 1 0.41776 0.234719 0.470742
23 3 0.348579 0.264729 0.446109
24 4 0.465837 0.25588 0.47175
25 1 0.366041 0.242081 0.378388
26 3 0.278655 0.253674 0.376656
27 4 0.38473 0.221894 0.347087
28 1 0.256065 0.188499 0.404779
29 3 0.185101 0.219201 0.424707
30 4 0.260227 0.151769 0.419073
31 1 0.232138 0.240824 0.486742
32 3 0.182723 0.291764 0.482141
33 4 0.26762 0.245056 0.516467
34 1 0.243322 0.325314 0.437295
35 3 0.166933 0.345679 0.413128
36 4 0.288872 0.337625 0.417703
37 1 0.152108 0.291713 0.370401
38 3 0.0678432 0.306461 0.381102
39 4 0.159242 0.259779 0.34856
40 1 0.0619357 0.267294 0.443344
41 3 0.00148616 0.30936 0.461515
42 4 0.0757942 0.243979 0.474077
43 1 0.0720416 0.35971 0.475291
44 3 0.0623444 0.415651 0.453036
45 4 0.116775 0.37374 0.495039
46 1 0.0263422 0.397543 0.389012
47 3 0.0537618 0.443532 0.35404
48 5 0.0436188 0.382613 0.322477
49 1 0.153074 0.434068 0.361691
50 3 0.185473 0.451715 0.307359
51 4 0.202118 0.428861 0.381774
52 1 0.154115 0.398748 0.269802
53 3 0.0792495 0.427142 0.251114
54 4 0.139996 0.362916 0.258119
55 1 0.131748 0.47444 0.208259
56 3 0.083485 0.526406 0.216788
57 4 0.0926992 0.460949 0.18254
58 1 0.110905 0.533485 0.28376
59 3 0.17767 0.571498 0.27019
60 4 0.128107 0.527073 0.320153
61 1 0.113431 0.623849 0.243954
62 3 0.183875 0.637315 0.206346
63 4 0.141185 0.648319 0.268613
64 1 0.169088 0.582322 0.163904
65 3 0.250269 0.563675 0.149093
66 5 0.139662 0.551073 0.0934426
67 1 0.272339 0.530946 0.206759
68 3 0.240312 0.481006 0.235761
69 4 0.300873 0.545823 0.237932
70 1 0.2778 0.434991 0.186159
71 3 0.342523 0.435299 0.228291
72 4 0.298161 0.420935 0.152117
73 1 0.312651 0.372534 0.257835
74 3 0.390972 0.376613 0.286293
75 4 0.292216 0.336266 0.259721
76 1 0.447631 0.361146 0.226662
77 3 0.512205 0.3909 0.257214
78 5 0.393721 0.318219 0.174732
79 1 0.471447 0.454459 0.250029
80 3 0.513468 0.46159 0.303482
81 4 0.439235 0.485393 0.24062
82 1 0.434442 0.441865 0.343752
83 3 0.497901 0.422808 0.383222
84 4 0.379751 0.434427 0.353342
85 1 0.51057 0.358094 0.353885
86 3 0.59465 0.364532 0.369161
87 4 0.499907 0.323672 0.334576
88 1 0.623556 0.401288 0.310564
89 3 0.677317 0.43081 0.351403
90 4 0.622107 0.415857 0.273757
91 1 0.609288 0.478518 0.37035
92 3 0.655842 0.473927 0.421683
93 4 0.565001 0.502219 0.373968
94 1 0.604496 0.421269 0.45115
95 3 0.679621 0.402544 0.477359
96 4 0.565447 0.395311 0.461773
97 1 0.721011 0.371431 0.420959
98 3 0.793238 0.391259 0.451615
99 4 0.731339 0.355349 0.385755
100 1 0.803158 0.449252 0.412869
101 3 0.834962 0.489137 0.453502
102 4 0.807542 0.467104 0.377975
103 1 0.745904 0.501988 0.487336
104 3 0.790006 0.496909 0.541487
105 4 0.691102 0.513812 0.493075
106 1 0.749842 0.434222 0.55635
107 3 0.777039 0.382153 0.581293
108 4 0.700502 0.431708 0.575813
109 1 0.789745 0.348449 0.517242
110 3 0.765633 0.302075 0.554773
111 4 0.842578 0.341011 0.531252
112 1 0.662567 0.3149 0.54265
113 3 0.632621 0.287916 0.595199
114 4 0.662493 0.27935 0.526547
115 1 0.680067 0.330546 0.638468
116 3 0.651235 0.387257 0.651831
117 4 0.73212 0.335702 0.650616
118 1 0.570054 0.366019 0.689621
119 3 0.565112 0.412009 0.73152
120 4 0.527401 0.345423 0.70606
121 1 0.655434 0.398415 0.76003
122 3 0.721419 0.436966 0.774815
123 4 0.673565 0.372432 0.786369
124 1 0.75144 0.449175 0.708489
125 3 0.697381 0.496832 0.721077
126 4 0.756307 0.448714 0.669744
127 1 0.77258 0.539564 0.742557
128 3 0.856771 0.542206 0.723688
129 4 0.77102 0.544002 0.783319
130 1 0.860004 0.607818 0.705181
131 3 0.821475 0.661733 0.71353
132 4 0.861416 0.611075 0.665944
133 1 0.889727 0.681201 0.766776
134 3 0.957719 0.700336 0.732424
135 4 0.917407 0.672814 0.800843
136 1 0.911313 0.760638 0.710842
137 3 0.936095 0.794316 0.759771
138 4 0.870221 0.774566 0.687346
139 1 0.977076 0.846308 0.715985
140 3 0.957533 0.879088 0.765148
141 4 0.998514 0.86357 0.683779
142 1 0.877578 0.910278 0.743074
143 3 0.801486 0.902455 0.773393
144 4 0.846071 0.936286 0.721465
145 1 0.833327 0.848719 0.812811
146 3 0.761471 0.81817 0.82408
147 5 0.861527 0.793593 0.768024
148 1 0.7329 0.802037 0.759565
149 3 0.796285 0.759099 0.755274
150 4 0.710236 0.814348 0.726273
151 1 0.73316 0.703645 0.751578
152 3 0.654579 0.699695 0.723585
153 4 0.728776 0.683587 0.785852
154 1 0.682408 0.647908 0.679721
155 3 0.709307 0.598122 0.709472
156 4 0.710199 0.643317 0.644775
157 1 0.606836 0.572755 0.713194
158 3 0.55222 0.553313 0.668606
159 4 0.56567 0.581938 0.739791
160 1 0.572915 0.484084 0.68029
161 3 0.621586 0.487932 0.627534
162 5 0.599034 0.433849 0.619116
163 1 0.564667 0.433324 0.598068
164 3 0.591715 0.452356 0.541281
165 4 0.522794 0.407623 0.583619
166 1 0.541148 0.513197 0.544511
167 3 0.559056 0.572345 0.541229
168 4 0.486383 0.518121 0.534224
169 1 0.622441 0.574166 0.598818
170 3 0.615568 0.632262 0.580983
171 4 0.67245 0.576192 0.578191
172 1 0.524243 0.642317 0.614791
173 3 0.560357 0.657553 0.668115
174 4 0.470035 0.63021 0.624717
175 1 0.577187 0.726499 0.650306
176 3 0.506855 0.753841 0.67375
177 4 0.59543 0.754944 0.626811
178 1 0.543935 0.761946 0.73899
179 3 0.510645 0.813938 0.756825
180 4 0.568048 0.754354 0.77285
181 1 0.555452 0.857491 0.715598
182 3 0.480847 0.889219 0.718131
183 4 0.592309 0.875702 0.692024
184 1 0.432584 0.855311 0.66398
185 3 0.348244 0.837972 0.676309
186 4 0.435408 0.857491 0.623942
187 1 0.366301 0.770513 0.676671
188 3 0.30797 0.740426 0.71141
189 4 0.382798 0.744222 0.64935
190 1 0.366338 0.731962 0.767035
191 3 0.426491 0.769308 0.789806
192 4 0.384804 0.694873 0.764734
193 1 0.392198 0.762177 0.857734
194 3 0.411035 0.711622 0.889268
195 4 0.349025 0.774079 0.880687
196 1 0.503585 0.727601 0.906897
197 3 0.549322 0.735117 0.959548
198 4 0.549954 0.713263 0.887769
199 1 0.513766 0.800549 0.973196
200 3 0.577633 0.834919 0.998966
201 5 0.502805 0.761164 0.912904
202 1 0.6483 0.825993 0.9512
203 3 0.707115 0.853644 0.915426
204 4 0.685603 0.798292 0.961823
205 1 0.646703 0.860312 0.857863
206 3 0.59647 0.909611 0.863498
207 4 0.617871 0.843102 0.827337
208 1 0.672116 0.957088 0.853495
209 3 0.608954 0.998974 0.861456
210 4 0.721308 0.968733 0.838736
211 1 0.567565 0.998076 0.800507
212 3 0.515698 0.978583 0.755119
213 5 0.610292 0.971418 0.724222
214 1 0.484525 0.921794 0.79252
215 3 0.405053 0.946726 0.809502
216 4 0.492179 0.890451 0.814749
217 1 0.358239 0.911483 0.754447
218 3 0.375293 0.852181 0.759384
219 4 0.353929 0.923205 0.717355
220 1 0.277763 0.829969 0.76507
221 3 0.191417 0.821351 0.748062
222 4 0.259149 0.822813 0.80167
223 1 0.207245 0.824993 0.679773
224 3 0.13721 0.788494 0.673983
225 4 0.229352 0.836202 0.645085
226 1 0.17938 0.728038 0.682047
227 3 0.127773 0.694462 0.720457
228 4 0.214379 0.698361 0.67344
229 1 0.133271 0.741811 0.774944
230 3 0.111982 0.691743 0.809011
231 4 0.077206 0.746659 0.771842
232 1 0.210217 0.670095 0.815163
233 3 0.288872 0.697566 0.82695
234 4 0.220249 0.638649 0.791357
235 1 0.317369 0.651525 0.878464
236 3 0.335166 0.61105 0.832972
237 4 0.30875 0.630159 0.909972
238 1 0.433624 0.629492 0.826381
239 3 0.451978 0.571498 0.814207
240 4 0.481925 0.649447 0.826639
241 1 0.44399 0.545977 0.879291
242 3 0.416608 0.492549 0.859828
243 4 0.440461 0.54195 0.918502
244 1 0.325581 0.51176 0.830853
245 3 0.330894 0.47326 0.781018
246 4 0.278061 0.531254 0.82116
247 1 0.407134 0.509811 0.750389
248 3 0.469144 0.470926 0.730693
249 4 0.430875 0.541616 0.735888
250 1 0.496155 0.447482 0.79265
251 3 0.497864 0.390053 0.816817
252 4 0.527698 0.462231 0.821754
253 1 0.406948 0.372688 0.802498
254 3 0.421772 0.353631 0.744211
255 4 0.353074 0.378767 0.811286
256 1 0.405907 0.285326 0.759177
257 3 0.366859 0.271193 0.704897
258 4 0.401598 0.251468 0.780062
259 1 0.28486 0.307077 0.71446
260 3 0.296823 0.36938 0.716735
261 4 0.235445 0.299792 0.732993
262 1 0.293442 0.367815 0.641415
263 3 0.263608 0.422192 0.623554
264 4 0.306149 0.345474 0.608536
265 1 0.167973 0.413728 0.648342
266 3 0.165781 0.472388 0.632058
267 4 0.123871 0.401159 0.670881
268 1 0.205016 0.498859 0.692076
269 3 0.236225 0.542771 0.654338
270 4 0.224745 0.501449 0.728857
271 1 0.314211 0.50581 0.62831
272 3 0.292662 0.538538 0.579225
273 4 0.357905 0.480519 0.626811
274 1 0.232584 0.490753 0.547975
275 3 0.191566 0.540411 0.526418
276 4 0.20483 0.457563 0.533966
277 1 0.131414 0.550748 0.580931
278 3 0.135947 0.609152 0.563639
279 4 0.0990897 0.54631 0.613318
280 1 0.223035 0.622541 0.596931
281 3 0.244362 0.655885 0.546838
282 4 0.26123 0.623079 0.625596
283 1 0.287683 0.603637 0.510367
284 3 0.260598 0.636315 0.46123
285 4 0.308861 0.569292 0.497882
286 1 0.161991 0.615846 0.462548
287 3 0.142746 0.672557 0.442051
288 4 0.11436 0.596301 0.469217
289 1 0.152554 0.702901 0.505818
290 3 0.191863 0.748557 0.474206
291 4 0.149842 0.707159 0.544511
292 1 0.286049 0.724857 0.478083
293 3 0.287349 0.755842 0.424242
294 4 0.331451 0.703722 0.488577
295 1 0.265242 0.70108 0.382576
296 3 0.22898 0.733116 0.33698
297 4 0.259075 0.665606 0.365206
298 1 0.146275 0.751943 0.378595
299 3 0.130968 0.812296 0.37508
300 4 0.0993498 0.744145 0.398989
301 1 0.2094 0.833714 0.411706
302 3 0.256214 0.872188 0.37477
303 4 0.213078 0.83633 0.451434
304 1 0.345495 0.83987 0.389916
305 3 0.359465 0.78557 0.36319
306 5 0.297306 0.812353 0.345736
307 1 0.373063 0.82212 0.296063
308 3 0.419989 0.772155 0.2804
309 4 0.422032 0.840973 0.287508
310 1 0.343712 0.726652 0.288076
311 3 0.3987 0.719265 0.337032
312 5 0.340814 0.658781 0.223509
313 1 0.447669 0.664991 0.310357
314 3 0.532231 0.667402 0.3269
315 4 0.452127 0.629466 0.294461
316 1 0.548393 0.733321 0.302163
317 3 0.604198 0.747172 0.347785
318 4 0.544418 0.766409 0.281356
319 1 0.532528 0.743632 0.399402
320 3 0.595207 0.723805 0.439415
321 4 0.48211 0.738939 0.41641
322 1 0.612595 0.662734 0.408708
323 3 0.661007 0.656142 0.3574
324 4 0.588371 0.627825 0.40496
325 1 0.747576 0.682689 0.381516
326 3 0.77964 0.649268 0.336722
327 4 0.794093 0.697027 0.400747
328 1 0.778228 0.58735 0.369083
329 3 0.764667 0.561623 0.315423
330 4 0.777002 0.557647 0.394336
331 1 0.668735 0.576141 0.307488
332 3 0.695151 0.586734 0.249072
333 4 0.611406 0.582451 0.313821
334 1 0.703994 0.657219 0.259101
335 3 0.764927 0.658784 0.214746
336 4 0.697158 0.692923 0.276703
337 1 0.839495 0.628055 0.252226
338 3 0.883262 0.587452 0.217435
339 4 0.876983 0.634083 0.280839
340 1 0.833699 0.531818 0.244394
341 3 0.802675 0.486188 0.210378
342 4 0.845291 0.511786 0.277453
343 1 0.704551 0.507759 0.210197
344 3 0.662753 0.509888 0.154314
345 4 0.664016 0.503501 0.236898
346 1 0.660041 0.581348 0.1554
347 3 0.731414 0.579142 0.116267
348 4 0.665763 0.618129 0.167187
349 1 0.674494 0.5607 0.0596084
350 3 0.70574 0.517506 0.0215088
351 5 0.657031 0.545175 0.00103391
352 1 0.707784 0.466438 0.0702835
353 3 0.618205 0.458384 0.0706712
354 4 0.740442 0.456126 0.10112
355 1 0.619915 0.3919 0.0520091
356 3 0.638343 0.354169 0.0989744
357 4 0.62976 0.36407 0.0255669
358 1 0.562549 0.378639 0.140615
359 3 0.52885 0.329238 0.170133
360 4 0.535278 0.408906 0.159277
361 1 0.489058 0.299331 0.112208
362 3 0.502025 0.246646 0.141882
363 4 0.47676 0.288917 0.0757373
364 1 0.606651 0.247493 0.131517
365 3 0.610106 0.20966 0.180265
366 4 0.660041 0.259984 0.125908
367 1 0.583801 0.260574 0.227205
368 3 0.542003 0.227614 0.268458
369 4 0.577262 0.295637 0.244394
370 1 0.46658 0.204632 0.222863
371 3 0.444288 0.148998 0.198152
372 4 0.416868 0.220766 0.210973
373 1 0.533754 0.13407 0.169952
374 3 0.537247 0.104445 0.22506
375 4 0.587405 0.134045 0.158114
376 1 0.498941 0.0447585 0.200504
377 3 0.448114 0.0192885 0.242972
378 5 0.503288 0.0131968 0.162385
379 1 0.402304 0.0767692 0.265149
380 3 0.345161 0.0876959 0.218598
381 4 0.393907 0.110627 0.283036
382 1 0.281776 0.0373971 0.242352
383 3 0.254133 0.0621746 0.294719
384 4 0.26632 0.00102598 0.25114
385 1 0.192941 0.110934 0.262694
386 3 0.143192 0.105702 0.21242
387 4 0.214639 0.147306 0.261221
ITEM: TIMESTEP
1000
ITEM: NUMBER OF ATOMS
387
ITEM: BOX BOUNDS ss ss ss
-1.4337176935444557e+01 1.2637227835306051e+01
-5.5057912837057987e-01 3.7674171184030961e+01
1.6824369048227435e+01 5.4332716997860302e+01
ITEM: ATOMS id type xs ys zs
1 1 0.520896 0.0869257 0.736328
2 3 0.59529 0.123515 0.72195
3 4 0.473806 0.0980731 0.721384
4 1 0.606526 0.110959 0.657301
5 3 0.549901 0.0957601 0.61073
6 4 0.643497 0.082297 0.650418
7 1 0.549361 0.156021 0.580333
8 3 0.623922 0.162032 0.537981
9 4 0.53275 0.193567 0.581559
10 1 0.582435 0.119957 0.491658
11 3 0.545305 0.170952 0.467288
12 5 0.591202 0.158943 0.50829
13 1 0.551658 0.158793 0.402221
14 3 0.469254 0.174772 0.382215
15 4 0.587314 0.15094 0.372177
16 1 0.430981 0.115629 0.383243
17 3 0.360277 0.131535 0.417486
18 4 0.430302 0.0751467 0.376139
19 1 0.391001 0.120514 0.478878
20 3 0.348694 0.171863 0.498555
21 4 0.427934 0.105123 0.506276
22 1 0.405642 0.218378 0.478281
23 3 0.347379 0.257243 0.445953
24 4 0.454557 0.236714 0.473903
25 1 0.346619 0.223413 0.389254
26 3 0.256633 0.227692 0.3868
27 4 0.365062 0.205175 0.356033
28 1 0.233083 0.174084 0.42016
29 3 0.172841 0.197301 0.45802
30 4 0.235049 0.135002 0.426871
31 1 0.222937 0.228467 0.502879
32 3 0.176773 0.282159 0.4975
33 4 0.263748 0.232879 0.531428
34 1 0.229163 0.310056 0.44858
35 3 0.156162 0.329205 0.419906
36 4 0.275113 0.321212 0.42667
37 1 0.130953 0.27882 0.387167
38 3 0.0412406 0.273987 0.399853
39 4 0.140302 0.248965 0.361497
40 1 0.0486501 0.258051 0.464731
41 3 0.00304961 0.300731 0.499293
42 4 0.0622285 0.23029 0.495199
43 1 0.0632825 0.350876 0.492879
44 3 0.0243427 0.404924 0.475
45 4 0.108645 0.3603 0.511518
46 1 0.0178305 0.391822 0.408219
47 3 0.051234 0.440808 0.379451
48 5 0.0151582 0.397099 0.449106
49 1 0.140627 0.424374 0.370355
50 3 0.173042 0.431133 0.311362
51 4 0.185392 0.417473 0.391068
52 1 0.127443 0.384764 0.277623
53 3 0.0598962 0.417481 0.251812
54 4 0.112407 0.347203 0.268485
55 1 0.104094 0.463311 0.216957
56 3 0.0504173 0.509537 0.2398
57 4 0.0631648 0.449041 0.191705
58 1 0.0972708 0.527953 0.292646
59 3 0.156894 0.572081 0.27901
60 4 0.11893 0.520485 0.327593
61 1 0.10278 0.618731 0.25462
62 3 0.162341 0.631134 0.206069
63 4 0.129178 0.643906 0.280163
64 1 0.148074 0.573022 0.169007
65 3 0.224076 0.547577 0.149797
66 5 0.163882 0.609339 0.151088
67 1 0.25129 0.517669 0.205135
68 3 0.201177 0.469729 0.215852
69 4 0.276764 0.531277 0.239502
70 1 0.249824 0.419619 0.189258
71 3 0.316138 0.4122 0.231431
72 4 0.270339 0.403048 0.154249
73 1 0.287572 0.356569 0.262398
74 3 0.368293 0.34925 0.284045
75 4 0.269561 0.31729 0.262335
76 1 0.414769 0.33788 0.226121
77 3 0.486559 0.376089 0.236624
78 5 0.434378 0.310386 0.252397
79 1 0.446495 0.43303 0.248689
80 3 0.47108 0.455046 0.30588
81 4 0.41634 0.46436 0.235745
82 1 0.415527 0.42144 0.34677
83 3 0.468116 0.393451 0.390542
84 4 0.361574 0.41614 0.360444
85 1 0.490668 0.340304 0.353824
86 3 0.581891 0.336927 0.354682
87 4 0.475208 0.304583 0.336378
88 1 0.601544 0.378793 0.305627
89 3 0.655093 0.415808 0.343085
90 4 0.598786 0.394956 0.270168
91 1 0.592482 0.455138 0.368929
92 3 0.626251 0.454521 0.429721
93 4 0.543551 0.477834 0.37349
94 1 0.599964 0.394919 0.448598
95 3 0.678838 0.372833 0.470673
96 4 0.555003 0.376195 0.461172
97 1 0.710693 0.343085 0.416175
98 3 0.794438 0.361241 0.429269
99 4 0.709706 0.32981 0.377916
100 1 0.791591 0.420877 0.402589
101 3 0.823583 0.462476 0.446496
102 4 0.790625 0.439711 0.364981
103 1 0.747597 0.476911 0.478669
104 3 0.789619 0.470244 0.533622
105 4 0.690566 0.48716 0.482147
106 1 0.749832 0.413793 0.553613
107 3 0.78554 0.359903 0.572029
108 4 0.701754 0.409389 0.575119
109 1 0.784117 0.328311 0.513338
110 3 0.744692 0.272454 0.516198
111 4 0.834462 0.320499 0.529731
112 1 0.662103 0.292392 0.543514
113 3 0.632529 0.274231 0.601806
114 4 0.659524 0.256803 0.526498
115 1 0.68263 0.312005 0.6417
116 3 0.638484 0.3668 0.646788
117 4 0.734293 0.320715 0.654946
118 1 0.578977 0.349261 0.696359
119 3 0.59726 0.399833 0.731859
120 4 0.546968 0.322348 0.715979
121 1 0.668685 0.380722 0.767132
122 3 0.735337 0.418962 0.776259
123 4 0.692886 0.3545 0.792448
124 1 0.752608 0.437062 0.711376
125 3 0.715603 0.492867 0.717984
126 4 0.761 0.436333 0.67135
127 1 0.783338 0.527576 0.741445
128 3 0.862447 0.539558 0.716956
129 4 0.784037 0.534577 0.78101
130 1 0.849248 0.600859 0.695821
131 3 0.814244 0.656761 0.718304
132 4 0.847139 0.605136 0.654874
133 1 0.893349 0.67922 0.748786
134 3 0.932216 0.702109 0.697758
135 4 0.92999 0.674837 0.778078
136 1 0.892475 0.760782 0.692397
137 3 0.933887 0.79743 0.734818
138 4 0.843033 0.774379 0.676186
139 1 0.969879 0.843971 0.695565
140 3 0.968992 0.893992 0.734099
141 4 0.978635 0.861282 0.65833
142 1 0.876157 0.90783 0.732142
143 3 0.824708 0.908249 0.786169
144 4 0.849441 0.92972 0.70468
145 1 0.830984 0.845095 0.801318
146 3 0.748732 0.827489 0.813151
147 5 0.829106 0.814082 0.824265
148 1 0.726711 0.798135 0.75337
149 3 0.774001 0.749682 0.73142
150 4 0.699752 0.811911 0.72018
151 1 0.719906 0.700055 0.747187
152 3 0.650962 0.695459 0.706057
153 4 0.717282 0.678127 0.779813
154 1 0.670512 0.638802 0.677073
155 3 0.695359 0.579191 0.681825
156 4 0.69106 0.647342 0.639086
157 1 0.624541 0.553045 0.714851
158 3 0.539748 0.545368 0.696624
159 4 0.609698 0.555048 0.753406
160 1 0.546582 0.484168 0.671119
161 3 0.591803 0.468485 0.617247
162 5 0.574854 0.502637 0.700711
163 1 0.536177 0.424349 0.590396
164 3 0.553544 0.446316 0.530795
165 4 0.498164 0.394831 0.587674
166 1 0.508175 0.505435 0.538898
167 3 0.561596 0.552482 0.522165
168 4 0.453282 0.510266 0.529551
169 1 0.590136 0.57426 0.583715
170 3 0.572686 0.634351 0.570239
171 4 0.635944 0.577333 0.559249
172 1 0.498545 0.644191 0.607153
173 3 0.548181 0.6613 0.660387
174 4 0.445981 0.632953 0.621107
175 1 0.552409 0.724738 0.64795
176 3 0.481644 0.744289 0.680608
177 4 0.568916 0.75657 0.627135
178 1 0.515067 0.762089 0.739565
179 3 0.480519 0.820184 0.743223
180 4 0.548534 0.757984 0.770603
181 1 0.541471 0.852225 0.702212
182 3 0.473999 0.893391 0.697904
183 4 0.573905 0.856899 0.668158
184 1 0.405676 0.854926 0.673675
185 3 0.366788 0.810129 0.636137
186 4 0.405255 0.881871 0.643525
187 1 0.339257 0.76841 0.681899
188 3 0.367558 0.718879 0.712819
189 4 0.360572 0.751457 0.647711
190 1 0.328636 0.726309 0.772415
191 3 0.381134 0.769506 0.803521
192 4 0.356694 0.694433 0.758488
193 1 0.365765 0.752691 0.867328
194 3 0.399615 0.699579 0.895247
195 4 0.324356 0.759708 0.893146
196 1 0.480403 0.723067 0.916417
197 3 0.4961 0.734436 0.980376
198 4 0.527249 0.724932 0.892611
199 1 0.494525 0.800082 0.979911
200 3 0.558694 0.843425 0.993286
201 5 0.438357 0.792691 0.977374
202 1 0.630052 0.815642 0.96061
203 3 0.6769 0.848144 0.916927
204 4 0.667267 0.784188 0.968339
205 1 0.6173 0.858525 0.869515
206 3 0.578518 0.908117 0.894151
207 4 0.5842 0.843645 0.840424
208 1 0.631787 0.957593 0.877313
209 3 0.562564 0.997628 0.881487
210 4 0.67663 0.971866 0.857319
211 1 0.528203 0.998053 0.818294
212 3 0.48097 0.966161 0.773166
213 5 0.56926 1.0259 0.809439
214 1 0.451514 0.915957 0.811014
215 3 0.375473 0.941409 0.820791
216 4 0.45794 0.882534 0.836003
217 1 0.318906 0.90523 0.782849
218 3 0.328774 0.843667 0.763613
219 4 0.305492 0.922796 0.746303
220 1 0.243628 0.821715 0.775181
221 3 0.163164 0.825562 0.750247
222 4 0.219899 0.80553 0.809232
223 1 0.181891 0.817507 0.686459
224 3 0.115829 0.777696 0.668596
225 4 0.201821 0.827879 0.649518
226 1 0.146267 0.720976 0.689875
227 3 0.0787254 0.700984 0.728046
228 4 0.178627 0.689671 0.688688
229 1 0.105209 0.723211 0.786659
230 3 0.100623 0.666879 0.811062
231 4 0.0476695 0.726476 0.785294
232 1 0.187779 0.651419 0.82215
233 3 0.262168 0.677094 0.841833
234 4 0.196599 0.624083 0.791655
235 1 0.293362 0.630364 0.883289
236 3 0.329227 0.587756 0.843293
237 4 0.288975 0.608231 0.916993
238 1 0.411054 0.616582 0.83172
239 3 0.450575 0.561018 0.819128
240 4 0.459504 0.636931 0.835572
241 1 0.427604 0.527649 0.87517
242 3 0.386356 0.473149 0.862257
243 4 0.424926 0.521203 0.914944
244 1 0.316382 0.493721 0.82369
245 3 0.330146 0.460501 0.770535
246 4 0.269561 0.514019 0.821474
247 1 0.393953 0.496534 0.742345
248 3 0.456874 0.45636 0.722943
249 4 0.41606 0.533668 0.730358
250 1 0.481241 0.432304 0.783238
251 3 0.481577 0.372647 0.802397
252 4 0.511498 0.446521 0.814516
253 1 0.39459 0.354848 0.785534
254 3 0.406075 0.335592 0.724837
255 4 0.33941 0.359357 0.794382
256 1 0.404322 0.270396 0.733405
257 3 0.357584 0.256628 0.682282
258 4 0.410108 0.235042 0.750344
259 1 0.279813 0.291598 0.691073
260 3 0.277619 0.353213 0.683423
261 4 0.230936 0.282655 0.707512
262 1 0.279957 0.35863 0.617487
263 3 0.198259 0.35679 0.589339
264 4 0.300977 0.342359 0.582271
265 1 0.161607 0.407611 0.624092
266 3 0.14111 0.468915 0.626431
267 4 0.120795 0.389316 0.644045
268 1 0.198555 0.488923 0.674426
269 3 0.24092 0.537428 0.647081
270 4 0.216425 0.486161 0.712605
271 1 0.304627 0.500894 0.614086
272 3 0.297528 0.52653 0.556468
273 4 0.34884 0.477617 0.614169
274 1 0.227098 0.493076 0.530244
275 3 0.178628 0.543717 0.510359
276 4 0.202466 0.459519 0.51548
277 1 0.126269 0.550427 0.564332
278 3 0.135154 0.613867 0.558361
279 4 0.0959638 0.542969 0.597447
280 1 0.222603 0.618409 0.582614
281 3 0.264076 0.652842 0.537029
282 4 0.258677 0.619505 0.612192
283 1 0.283942 0.606575 0.492617
284 3 0.254582 0.633357 0.438268
285 4 0.298955 0.568613 0.477765
286 1 0.163383 0.623312 0.445592
287 3 0.15108 0.684407 0.43107
288 4 0.113357 0.605952 0.453785
289 1 0.148338 0.708983 0.492453
290 3 0.193364 0.757981 0.474735
291 4 0.14995 0.708644 0.534042
292 1 0.276936 0.732073 0.461643
293 3 0.293615 0.756798 0.404421
294 4 0.324809 0.712889 0.476092
295 1 0.261836 0.711498 0.363969
296 3 0.212264 0.746322 0.323621
297 4 0.257123 0.676357 0.347684
298 1 0.149402 0.767459 0.36707
299 3 0.152617 0.830924 0.359033
300 4 0.102418 0.760236 0.388803
301 1 0.206474 0.847031 0.406957
302 3 0.27169 0.887822 0.396591
303 4 0.206159 0.848763 0.44801
304 1 0.337992 0.84584 0.377331
305 3 0.309783 0.860241 0.316591
306 5 0.33198 0.860505 0.414487
307 1 0.378054 0.833425 0.2796
308 3 0.362829 0.793667 0.231992
309 4 0.428019 0.84918 0.268204
310 1 0.34241 0.739901 0.269477
311 3 0.41291 0.712236 0.240379
312 5 0.343935 0.722201 0.305376
313 1 0.442276 0.675933 0.290062
314 3 0.530717 0.680396 0.300805
315 4 0.432815 0.647689 0.262892
316 1 0.54602 0.74134 0.284087
317 3 0.59524 0.753616 0.334777
318 4 0.544159 0.773512 0.262508
319 1 0.530564 0.751676 0.383913
320 3 0.584774 0.726637 0.428985
321 4 0.481444 0.750403 0.401219
322 1 0.609424 0.670939 0.395852
323 3 0.665375 0.658891 0.345239
324 4 0.582232 0.63688 0.390212
325 1 0.743673 0.685529 0.368549
326 3 0.788304 0.651202 0.326351
327 4 0.781099 0.698682 0.392743
328 1 0.771426 0.592909 0.352361
329 3 0.752257 0.564086 0.296975
330 4 0.770941 0.562341 0.378262
331 1 0.661667 0.578458 0.291888
332 3 0.672799 0.598093 0.231177
333 4 0.608214 0.584743 0.301769
334 1 0.700349 0.660269 0.24154
335 3 0.765717 0.667357 0.199448
336 4 0.697458 0.696071 0.258757
337 1 0.82753 0.629378 0.230488
338 3 0.861406 0.583037 0.197663
339 4 0.867894 0.63805 0.259132
340 1 0.825997 0.53129 0.227548
341 3 0.788321 0.492658 0.184672
342 4 0.837896 0.50898 0.258824
343 1 0.697941 0.508458 0.192358
344 3 0.649499 0.517766 0.138979
345 4 0.655342 0.503954 0.221394
346 1 0.656696 0.581524 0.1331
347 3 0.718026 0.58567 0.0871978
348 4 0.658884 0.619008 0.146825
349 1 0.672502 0.560587 0.0345722
350 3 0.694319 0.50902 0.00330598
351 5 0.639086 0.533375 0.0177196
352 1 0.69137 0.462114 0.0501841
353 3 0.611716 0.441976 0.0694494
354 4 0.724121 0.453617 0.0825519
355 1 0.603751 0.387971 0.0312048
356 3 0.615179 0.349631 0.0799272
357 4 0.614926 0.359568 0.00400543
358 1 0.553907 0.37247 0.124431
359 3 0.511786 0.324247 0.151049
360 4 0.527499 0.40377 0.141062
361 1 0.478181 0.295734 0.0945142
362 3 0.49996 0.234789 0.0990076
363 4 0.446254 0.291197 0.0628186
364 1 0.588947 0.240371 0.11443
365 3 0.589438 0.205442 0.167703
366 4 0.63729 0.251026 0.0978996
367 1 0.574868 0.252605 0.21317
368 3 0.531652 0.212538 0.251662
369 4 0.569683 0.289321 0.229219
370 1 0.458061 0.199491 0.213371
371 3 0.439203 0.138588 0.198959
372 4 0.413311 0.215435 0.194122
373 1 0.514411 0.12629 0.162649
374 3 0.536665 0.0854875 0.208608
375 4 0.56583 0.126337 0.141501
376 1 0.481798 0.0354485 0.188808
377 3 0.435786 0.0166145 0.242117
378 5 0.457129 0.0650864 0.168918
379 1 0.37567 0.0659583 0.245266
380 3 0.303951 0.0861497 0.212067
381 4 0.385028 0.100624 0.263531
382 1 0.243697 0.0406877 0.234612
383 3 0.207727 0.0671984 0.287545
384 4 0.225178 0.00369962 0.240455
385 1 0.171596 0.120068 0.258668
386 3 0.141428 0.179298 0.248862
387 4 0.201462 0.153942 0.260713
ITEM: TIMESTEP
2000
ITEM: NUMBER OF ATOMS
387
ITEM: BOX BOUNDS ss ss ss
-1.4779187228164279e+01 1.2572052513070075e+01
-4.4490558716351575e-01 3.7799708484810772e+01
1.6803276134185190e+01 5.3534642609405829e+01
ITEM: ATOMS id type xs ys zs
1 1 0.559641 0.187054 0.767194
2 3 0.565962 0.221005 0.712284
3 4 0.518394 0.161093 0.764978
4 1 0.629092 0.188613 0.677521
5 3 0.582269 0.138591 0.654538
6 4 0.681731 0.180017 0.67813
7 1 0.552191 0.166472 0.595053
8 3 0.609227 0.167057 0.548957
9 4 0.511948 0.195272 0.588567
10 1 0.583995 0.121024 0.506652
11 3 0.526428 0.157603 0.476216
12 5 0.538902 0.108347 0.52874
13 1 0.563099 0.169307 0.418413
14 3 0.480896 0.181758 0.398225
15 4 0.598273 0.162365 0.385029
16 1 0.444151 0.120395 0.397293
17 3 0.369758 0.130694 0.431656
18 4 0.450736 0.0835229 0.378942
19 1 0.397795 0.116111 0.493713
20 3 0.357529 0.166723 0.519417
21 4 0.426307 0.0992643 0.523241
22 1 0.407446 0.213112 0.490157
23 3 0.356495 0.251563 0.456779
24 4 0.459026 0.230495 0.482224
25 1 0.352153 0.224911 0.396504
26 3 0.264529 0.226574 0.393686
27 4 0.370733 0.201272 0.364677
28 1 0.245117 0.170738 0.428325
29 3 0.180201 0.202556 0.460143
30 4 0.250512 0.133157 0.443204
31 1 0.229058 0.224859 0.514193
32 3 0.17999 0.277154 0.507209
33 4 0.261345 0.228802 0.544482
34 1 0.236055 0.310106 0.462797
35 3 0.163806 0.331923 0.431554
36 4 0.282506 0.326967 0.449546
37 1 0.142356 0.27792 0.396205
38 3 0.0586743 0.283602 0.415627
39 4 0.146452 0.244423 0.374838
40 1 0.060716 0.254392 0.475252
41 3 0.0164699 0.299013 0.514093
42 4 0.0731826 0.228162 0.502763
43 1 0.0726323 0.349954 0.509358
44 3 0.0281207 0.400019 0.484044
45 4 0.118963 0.360703 0.526436
46 1 0.0298826 0.38944 0.419147
47 3 0.060727 0.430042 0.377459
48 5 0.0252568 0.394832 0.378579
49 1 0.14937 0.427261 0.385148
50 3 0.177902 0.436223 0.324429
51 4 0.197106 0.413172 0.402719
52 1 0.138667 0.388753 0.289797
53 3 0.0728821 0.418173 0.262031
54 4 0.121105 0.3503 0.283579
55 1 0.119792 0.45984 0.222259
56 3 0.0720903 0.510855 0.23797
57 4 0.0751712 0.448023 0.19849
58 1 0.110389 0.525316 0.298904
59 3 0.170781 0.564972 0.277667
60 4 0.131544 0.515617 0.337929
61 1 0.112619 0.616447 0.262883
62 3 0.137693 0.63283 0.20311
63 4 0.143938 0.64076 0.284903
64 1 0.156917 0.570415 0.177495
65 3 0.242947 0.560672 0.165887
66 5 0.163955 0.53128 0.174246
67 1 0.261963 0.515162 0.211303
68 3 0.22309 0.462888 0.233127
69 4 0.289571 0.528028 0.24384
70 1 0.261952 0.418879 0.193074
71 3 0.328069 0.406224 0.234662
72 4 0.27208 0.404188 0.154583
73 1 0.294407 0.355015 0.268437
74 3 0.372321 0.339713 0.289287
75 4 0.274366 0.318631 0.265657
76 1 0.42341 0.337447 0.232981
77 3 0.494328 0.373072 0.239341
78 5 0.377353 0.332313 0.256183
79 1 0.453772 0.431049 0.25449
80 3 0.49112 0.439868 0.311484
81 4 0.424861 0.461247 0.238492
82 1 0.425017 0.420009 0.353124
83 3 0.485806 0.395204 0.390243
84 4 0.370965 0.412784 0.365039
85 1 0.493389 0.334338 0.362211
86 3 0.578763 0.33467 0.36404
87 4 0.472776 0.299197 0.34517
88 1 0.600941 0.377843 0.316382
89 3 0.659124 0.412807 0.346984
90 4 0.597534 0.388375 0.275136
91 1 0.601424 0.457181 0.377138
92 3 0.636509 0.456876 0.436125
93 4 0.558826 0.482295 0.377425
94 1 0.600441 0.398556 0.456726
95 3 0.669288 0.367124 0.482363
96 4 0.556941 0.378105 0.473102
97 1 0.705829 0.341958 0.425486
98 3 0.785995 0.359754 0.442369
99 4 0.709983 0.326548 0.385428
100 1 0.789092 0.419061 0.414041
101 3 0.817645 0.465076 0.449248
102 4 0.785283 0.433093 0.377017
103 1 0.745633 0.477756 0.489745
104 3 0.7715 0.471674 0.551285
105 4 0.694304 0.491683 0.491021
106 1 0.753933 0.409214 0.562673
107 3 0.797929 0.358427 0.578259
108 4 0.705846 0.408414 0.584071
109 1 0.778281 0.319651 0.525366
110 3 0.743476 0.266338 0.550927
111 4 0.828857 0.309368 0.53743
112 1 0.655033 0.288875 0.558454
113 3 0.636774 0.265823 0.618222
114 4 0.646649 0.25378 0.54157
115 1 0.692075 0.304701 0.655265
116 3 0.650883 0.359133 0.665645
117 4 0.744759 0.310879 0.664999
118 1 0.591627 0.339418 0.713223
119 3 0.592082 0.384141 0.760331
120 4 0.555494 0.310272 0.729738
121 1 0.678359 0.375761 0.783523
122 3 0.765618 0.387974 0.779554
123 4 0.693478 0.349246 0.810708
124 1 0.765714 0.428793 0.726706
125 3 0.732757 0.486168 0.716221
126 4 0.771383 0.420616 0.686627
127 1 0.791624 0.520048 0.757538
128 3 0.875296 0.528903 0.741284
129 4 0.791019 0.526158 0.799154