LAMMPS (5 Jun 2019)
# 3d protein simulation

units real

timestep 5

dimension	3

boundary s s s
#boundary p p p

neighbor	5 bin
neigh_modify	delay 5

atom_modify sort 0 0.0

special_bonds fene

atom_style	awsemmd

bond_style harmonic

pair_style vexcluded 2 3.5 3.5

read_data data.1lys
  orthogonal box = (-200 -200 -200) to (200 200 200)
  1 by 1 by 1 MPI processor grid
  reading atoms ...
  387 atoms
  scanning bonds ...
  3 = max bonds/atom
  reading bonds ...
  514 bonds
  5 = max # of 1-2 neighbors
  5 = max # of special neighbors
  special bonds CPU = 0.000157118 secs
  read_data CPU = 0.00252509 secs

pair_coeff * * 0.0
pair_coeff 1 1 20.0 3.5 4.5
pair_coeff 1 4 20.0 3.5 4.5
pair_coeff 4 4 20.0 3.5 4.5
pair_coeff 3 3 20.0 3.5 3.5


velocity	all create 300.0 2349852

group		alpha_carbons id 1 4 7 10 13 16 19 22 25 28 31 34 37 40 43 46 49 52 55 58 61 64 67 70 73 76 79 82 85 88 91 94 97 100 103 106 109 112 115 118 121 124 127 130 133 136 139 142 145 148 151 154 157 160 163 166 169 172 175 178 181 184 187 190 193 196 199 202 205 208 211 214 217 220 223 226 229 232 235 238 241 244 247 250 253 256 259 262 265 268 271 274 277 280 283 286 289 292 295 298 301 304 307 310 313 316 319 322 325 328 331 334 337 340 343 346 349 352 355 358 361 364 367 370 373 376 379 382 385
129 atoms in group alpha_carbons

group		beta_atoms id 3 6 9 12 15 18 21 24 27 30 33 36 39 42 45 48 51 54 57 60 63 66 69 72 75 78 81 84 87 90 93 96 99 102 105 108 111 114 117 120 123 126 129 132 135 138 141 144 147 150 153 156 159 162 165 168 171 174 177 180 183 186 189 192 195 198 201 204 207 210 213 216 219 222 225 228 231 234 237 240 243 246 249 252 255 258 261 264 267 270 273 276 279 282 285 288 291 294 297 300 303 306 309 312 315 318 321 324 327 330 333 336 339 342 345 348 351 354 357 360 363 366 369 372 375 378 381 384 387
129 atoms in group beta_atoms

group		oxygens id 2 5 8 11 14 17 20 23 26 29 32 35 38 41 44 47 50 53 56 59 62 65 68 71 74 77 80 83 86 89 92 95 98 101 104 107 110 113 116 119 122 125 128 131 134 137 140 143 146 149 152 155 158 161 164 167 170 173 176 179 182 185 188 191 194 197 200 203 206 209 212 215 218 221 224 227 230 233 236 239 242 245 248 251 254 257 260 263 266 269 272 275 278 281 284 287 290 293 296 299 302 305 308 311 314 317 320 323 326 329 332 335 338 341 344 347 350 353 356 359 362 365 368 371 374 377 380 383 386
129 atoms in group oxygens


fix		  1 all nvt temp 300.0 300.0 100.0
fix		  2 alpha_carbons backbone beta_atoms oxygens fix_backbone_coeff.data 1lys.seq
Chain flag on
Chi flag on
Rama flag on
Rama_P flag on
SSWeight flag on
ABC flag on
Dssp_Hdrgn flag on
P_AP flag on
Water flag on
Burial flag on
Helix flag on
Fragment_Memory_Table flag on
DebyeHuckel on

Reading fragments...
Computing FM table...

thermo		1000
dump		1 all atom 1000 dump.lammpstrj

dump_modify	1 sort id

reset_timestep	0
run		3000
Neighbor list info ...
  update every 1 steps, delay 5 steps, check yes
  max neighbors/atom: 2000, page size: 100000
  master list distance cutoff = 9.5
  ghost atom cutoff = 9.5
  binsize = 4.75, bins = 6 9 9
  2 neighbor lists, perpetual/occasional/extra = 2 0 0
  (1) pair vexcluded, perpetual, half/full from (2)
      attributes: half, newton on
      pair build: halffull/newton
      stencil: none
      bin: none
  (2) fix backbone, perpetual
      attributes: full, newton on
      pair build: full/bin
      stencil: full/bin/3d
      bin: standard
Per MPI rank memory allocation (min/avg/max) = 1.997 | 1.997 | 1.997 Mbytes
Step Temp E_pair E_mol TotEng Press Volume 
       0          300    209.08689    6522.8769    5920.0083   -31764.493     40596.82 
    1000    311.67167     13.64897     168.3241   -387.55757    -1154.776    38674.478 
    2000    277.86999     19.95522    161.48317    -422.6348    387.78944    38422.391 
    3000    297.65042    13.990128    166.03489   -392.45829     1046.615    41848.709 
Loop time of 22.4641 on 1 procs for 3000 steps with 387 atoms

Performance: 57.692 ns/day, 0.416 hours/ns, 133.546 timesteps/s
99.9% CPU use with 1 MPI tasks x no OpenMP threads

MPI task timing breakdown:
Section |  min time  |  avg time  |  max time  |%varavg| %total
---------------------------------------------------------------
Pair    | 0.35511    | 0.35511    | 0.35511    |   0.0 |  1.58
Bond    | 0.048057   | 0.048057   | 0.048057   |   0.0 |  0.21
Neigh   | 0.040942   | 0.040942   | 0.040942   |   0.0 |  0.18
Comm    | 0.0025568  | 0.0025568  | 0.0025568  |   0.0 |  0.01
Output  | 0.0019398  | 0.0019398  | 0.0019398  |   0.0 |  0.01
Modify  | 22.001     | 22.001     | 22.001     |   0.0 | 97.94
Other   |            | 0.01494    |            |       |  0.07

Nlocal:    387 ave 387 max 387 min
Histogram: 1 0 0 0 0 0 0 0 0 0
Nghost:    0 ave 0 max 0 min
Histogram: 1 0 0 0 0 0 0 0 0 0
Neighs:    7118 ave 7118 max 7118 min
Histogram: 1 0 0 0 0 0 0 0 0 0
FullNghs:  14236 ave 14236 max 14236 min
Histogram: 1 0 0 0 0 0 0 0 0 0

Total # of neighbors = 14236
Ave neighs/atom = 36.7855
Ave special neighs/atom = 2.65633
Neighbor list builds = 31
Dangerous builds = 0
Total wall time: 0:00:23
